
     Program PWSCF v.7.3.1 starts on 15Apr2025 at 15:54:50 

     This program is part of the open-source Quantum ESPRESSO suite
     for quantum simulation of materials; please cite
         "P. Giannozzi et al., J. Phys.:Condens. Matter 21 395502 (2009);
         "P. Giannozzi et al., J. Phys.:Condens. Matter 29 465901 (2017);
         "P. Giannozzi et al., J. Chem. Phys. 152 154105 (2020);
          URL http://www.quantum-espresso.org", 
     in publications or presentations arising from this work. More details at
     http://www.quantum-espresso.org/quote

     Parallel version (MPI), running on    40 processors

     MPI processes distributed on     1 nodes
     760846 MiB available memory on the printing compute node when the environment starts

     Waiting for input...
     Reading input from standard input
Warning: card &CELL     !SAME AS NON SOC ignored
Warning: card   CELL_DYNAMICS = 'BFGS' ignored
Warning: card   PRESS = 0.0 ignored
Warning: card   PRESS_CONV_THR = 0.5 ignored
Warning: card / ignored

     Current dimensions of program PWSCF are:
     Max number of different atomic species (ntypx) = 10
     Max number of k-points (npk) =  40000
     Max angular momentum in pseudopotentials (lmaxx) =  4
     file Cs.rel-pbe-spn-rrkjus_psl.1.0.0.UPF: wavefunction(s)  5S 6S renormalized
     file Pb.rel-pbe-dn-rrkjus_psl.0.2.2.UPF: wavefunction(s)  6S 5D renormalized
     file Cl.rel-pbe-n-rrkjus_psl.0.1.UPF: wavefunction(s)  3S renormalized
     Message from routine setup:
     using ibrav=0 with symmetry is DISCOURAGED, use correct ibrav instead

     R & G space division:  proc/nbgrp/npool/nimage =      40
     Subspace diagonalization in iterative solution of the eigenvalue problem:
     one sub-group per band group will be used
     custom distributed-memory algorithm (size of sub-group:  2*  2 procs)


     Parallelization info
     --------------------
     sticks:   dense  smooth     PW     G-vecs:    dense   smooth      PW
     Min         228     114     32                13796     4876     744
     Max         229     115     33                13801     4880     748
     Sum        9157    4577   1305               551981   195099   29833

     Using Slab Decomposition



     bravais-lattice index     =            0
     lattice parameter (alat)  =      21.5463  a.u.
     unit-cell volume          =    4948.0504 (a.u.)^3
     number of atoms/cell      =           20
     number of atomic types    =            3
     number of electrons       =       176.00
     number of Kohn-Sham states=          220
     kinetic-energy cutoff     =      44.0000  Ry
     charge density cutoff     =     352.0000  Ry
     scf convergence threshold =      1.0E-06
     mixing beta               =       0.1000
     number of iterations used =           12  local-TF  mixing
     Exchange-correlation= PBE
                           (   1   4   3   4   0   0   0)
     Non magnetic calculation with spin-orbit


     celldm(1)=  21.546279  celldm(2)=   0.000000  celldm(3)=   0.000000
     celldm(4)=   0.000000  celldm(5)=   0.000000  celldm(6)=   0.000000

     crystal axes: (cart. coord. in units of alat)
               a(1) = (   0.499223   0.499585   0.495288 )  
               a(2) = (  -0.500958   0.500854   0.493260 )  
               a(3) = (  -0.500688  -0.496619   0.496371 )  

     reciprocal axes: (cart. coord. in units 2 pi/alat)
               b(1) = (  0.997775  0.003419  1.009876 )  
               b(2) = ( -0.998538  1.002249 -0.004472 )  
               b(3) = ( -0.003319 -0.999380  1.011395 )  


     PseudoPot. # 1 for Cs read from file:
     ./pseudo/Cs.rel-pbe-spn-rrkjus_psl.1.0.0.UPF
     MD5 check sum: 92f45d5fced885c1284380ec35df8368
     Pseudo is Ultrasoft + core correction, Zval =  9.0
     Generated using &quot;atomic&quot; code by A. Dal Corso  v.6.4.1
     Using radial grid of 1251 points, 15 beta functions with: 
                l(1) =   0
                l(2) =   0
                l(3) =   0
                l(4) =   1
                l(5) =   1
                l(6) =   1
                l(7) =   1
                l(8) =   2
                l(9) =   2
               l(10) =   2
               l(11) =   2
               l(12) =   3
               l(13) =   3
               l(14) =   3
               l(15) =   3
     Q(r) pseudized with 0 coefficients 


     PseudoPot. # 2 for Pb read from file:
     ./pseudo/Pb.rel-pbe-dn-rrkjus_psl.0.2.2.UPF
     MD5 check sum: 9c73912f9d8c3ac16a0fd4e5e9b2d9d5
     Pseudo is Ultrasoft + core correction, Zval = 14.0
     Generated using "atomic" code by A. Dal Corso  v.5.0.2 svn rev. 9415
     Using radial grid of 1281 points, 10 beta functions with: 
                l(1) =   0
                l(2) =   0
                l(3) =   1
                l(4) =   1
                l(5) =   1
                l(6) =   1
                l(7) =   2
                l(8) =   2
                l(9) =   2
               l(10) =   2
     Q(r) pseudized with 0 coefficients 


     PseudoPot. # 3 for Cl read from file:
     ./pseudo/Cl.rel-pbe-n-rrkjus_psl.0.1.UPF
     MD5 check sum: d6929d25f2e302c671c5179b82bfa032
     Pseudo is Ultrasoft + core correction, Zval =  7.0
     Generated using "atomic" code by A. Dal Corso  v.5.0.2 svn rev. 9415
     Using radial grid of 1157 points,  6 beta functions with: 
                l(1) =   0
                l(2) =   0
                l(3) =   1
                l(4) =   1
                l(5) =   1
                l(6) =   1
     Q(r) pseudized with 0 coefficients 


     atomic species   valence    mass     pseudopotential
     Cs                9.00   132.91000     Cs( 1.00)
     Pb               14.00   207.20000     Pb( 1.00)
     Cl                7.00    35.45300     Cl( 1.00)

      2 Sym. Ops., with inversion, found


                                    s                        frac. trans.

      isym =  1     identity                                     

 cryst.   s( 1) = (     1          0          0      )
                  (     0          1          0      )
                  (     0          0          1      )

 cart.    s( 1) = (  1.0000000  0.0000000  0.0000000 )
                  ( -0.0000000  1.0000000  0.0000000 )
                  ( -0.0000000  0.0000000  1.0000000 )


      isym =  2     inversion                                    

 cryst.   s( 2) = (    -1          0          0      )
                  (     0         -1          0      )
                  (     0          0         -1      )

 cart.    s( 2) = ( -1.0000000  0.0000000  0.0000000 )
                  (  0.0000000 -1.0000000  0.0000000 )
                  (  0.0000000  0.0000000 -1.0000000 )


   Cartesian axes

     site n.     atom                  positions (alat units)
         1        Cs     tau(   1) = (   0.0000000   0.0000000   0.0000000  )
         2        Cs     tau(   2) = (  -0.0008674   0.5002192   0.4942738  )
         3        Cs     tau(   3) = (  -0.0007325   0.0014827   0.4958292  )
         4        Cs     tau(   4) = (  -0.5008232   0.0021172   0.4948153  )
         5        Pb     tau(   5) = (   0.2496116   0.2497924   0.2476439  )
         6        Pb     tau(   6) = (  -0.2512116   0.2519096   0.7424591  )
         7        Pb     tau(   7) = (  -0.2504791   0.2504269   0.2466299  )
         8        Pb     tau(   8) = (  -0.7513023   0.2525441   0.7414452  )
         9        Cl     tau(   9) = (  -0.7460504   0.0031520   0.7861946  )
        10        Cl     tau(  10) = (  -0.2857851  -0.2103271   0.4958436  )
        11        Cl     tau(  11) = (  -0.0004590   0.2377990   0.2836844  )
        12        Cl     tau(  12) = (  -0.5019642   0.2660201   1.2012338  )
        13        Cl     tau(  13) = (  -0.2457561   0.5010164   0.6985657  )
        14        Cl     tau(  14) = (  -0.5013051   0.2643097   0.7786620  )
        15        Cl     tau(  15) = (  -0.2566671   0.0028027   0.7863526  )
        16        Cl     tau(  16) = (  -0.2166380   0.7141462   0.9890747  )
        17        Cl     tau(  17) = (  -0.0011181   0.2395094   0.7062563  )
        18        Cl     tau(  18) = (  -0.2202299   0.2918306   0.9903876  )
        19        Cl     tau(  19) = (   0.2436273   0.5006671   0.6987236  )
        20        Cl     tau(  20) = (  -0.2821933   0.2119885   0.4945307  )

   Crystallographic axes

     site n.     atom                  positions (cryst. coord.)
         1        Cs     tau(   1) = (  0.0000000  0.0000000  0.0000000  )
         2        Cs     tau(   2) = (  0.5000000  0.5000000 -0.0000000  )
         3        Cs     tau(   3) = (  0.5000000  0.0000000  0.5000000  )
         4        Cs     tau(   4) = (  0.0000000  0.5000000  0.5000000  )
         5        Pb     tau(   5) = (  0.5000000  0.0000000  0.0000000  )
         6        Pb     tau(   6) = (  0.5000000  0.5000000  0.5000000  )
         7        Pb     tau(   7) = (  0.0000000  0.5000000  0.0000000  )
         8        Pb     tau(   8) = (  0.0000000  1.0000000  0.5000000  )
         9        Cl     tau(   9) = (  0.0495788  0.7446028  0.7944794  )
        10        Cl     tau(  10) = (  0.2148718  0.0723496  0.7126391  )
        11        Cl     tau(  11) = (  0.2868411  0.2375235  0.0492671  )
        12        Cl     tau(  12) = (  0.7131589  0.7624765  0.9507329  )
        13        Cl     tau(  13) = (  0.4619682  0.7444159  0.2066358  )
        14        Cl     tau(  14) = (  0.2870657  0.7619940  0.5250529  )
        15        Cl     tau(  15) = (  0.5380318  0.2555841  0.7933642  )
        16        Cl     tau(  16) = (  0.7851282  0.9276504  0.2873609  )
        17        Cl     tau(  17) = (  0.7129343  0.2380060  0.4749471  )
        18        Cl     tau(  18) = (  0.7814262  0.5079656  0.7107546  )
        19        Cl     tau(  19) = (  0.9504212  0.2553972  0.2055206  )
        20        Cl     tau(  20) = (  0.2185738  0.4920344  0.2892454  )

     number of k points=   260
                       cart. coord. in units 2pi/alat
        k(    1) = (   0.0000000   0.0000000   0.0000000), wk =   0.0019531
        k(    2) = (  -0.0004148  -0.1249225   0.1264244), wk =   0.0039062
        k(    3) = (  -0.0008297  -0.2498450   0.2528488), wk =   0.0039062
        k(    4) = (  -0.0012445  -0.3747675   0.3792732), wk =   0.0039062
        k(    5) = (   0.0016593   0.4996900  -0.5056976), wk =   0.0019531
        k(    6) = (  -0.1248172   0.1252812  -0.0005590), wk =   0.0039062
        k(    7) = (  -0.1252321   0.0003587   0.1258654), wk =   0.0039062
        k(    8) = (  -0.1256469  -0.1245638   0.2522898), wk =   0.0039062
        k(    9) = (  -0.1260617  -0.2494863   0.3787142), wk =   0.0039062
        k(   10) = (  -0.1231579   0.6249711  -0.5062567), wk =   0.0039062
        k(   11) = (  -0.1235728   0.5000486  -0.3798323), wk =   0.0039062
        k(   12) = (  -0.1239876   0.3751261  -0.2534079), wk =   0.0039062
        k(   13) = (  -0.1244024   0.2502036  -0.1269834), wk =   0.0039062
        k(   14) = (  -0.2496345   0.2505623  -0.0011181), wk =   0.0039062
        k(   15) = (  -0.2500493   0.1256398   0.1253064), wk =   0.0039062
        k(   16) = (  -0.2504642   0.0007173   0.2517308), wk =   0.0039062
        k(   17) = (  -0.2508790  -0.1242052   0.3781552), wk =   0.0039062
        k(   18) = (  -0.2479752   0.7502523  -0.5068157), wk =   0.0039062
        k(   19) = (  -0.2483900   0.6253298  -0.3803913), wk =   0.0039062
        k(   20) = (  -0.2488048   0.5004073  -0.2539669), wk =   0.0039062
        k(   21) = (  -0.2492197   0.3754848  -0.1275425), wk =   0.0039062
        k(   22) = (  -0.3744517   0.3758435  -0.0016771), wk =   0.0039062
        k(   23) = (  -0.3748666   0.2509210   0.1247473), wk =   0.0039062
        k(   24) = (  -0.3752814   0.1259985   0.2511717), wk =   0.0039062
        k(   25) = (  -0.3756962   0.0010760   0.3775961), wk =   0.0039062
        k(   26) = (  -0.3727924   0.8755334  -0.5073747), wk =   0.0039062
        k(   27) = (  -0.3732073   0.7506109  -0.3809503), wk =   0.0039062
        k(   28) = (  -0.3736221   0.6256884  -0.2545259), wk =   0.0039062
        k(   29) = (  -0.3740369   0.5007659  -0.1281015), wk =   0.0039062
        k(   30) = (   0.4992690  -0.5011246   0.0022361), wk =   0.0019531
        k(   31) = (   0.4988542  -0.6260471   0.1286605), wk =   0.0039062
        k(   32) = (   0.4984393  -0.7509696   0.2550849), wk =   0.0039062
        k(   33) = (   0.4980245  -0.8758921   0.3815094), wk =   0.0039062
        k(   34) = (   0.5009283  -0.0014346  -0.5034615), wk =   0.0019531
        k(   35) = (   0.1247219   0.0004274   0.1262345), wk =   0.0039062
        k(   36) = (   0.1243071  -0.1244951   0.2526589), wk =   0.0039062
        k(   37) = (   0.1238923  -0.2494176   0.3790833), wk =   0.0039062
        k(   38) = (   0.1234774  -0.3743401   0.5055077), wk =   0.0039062
        k(   39) = (   0.1263813   0.5001174  -0.3794632), wk =   0.0039062
        k(   40) = (   0.1259664   0.3751949  -0.2530388), wk =   0.0039062
        k(   41) = (   0.1255516   0.2502724  -0.1266144), wk =   0.0039062
        k(   42) = (   0.1251368   0.1253499  -0.0001900), wk =   0.0039062
        k(   43) = (  -0.0000953   0.1257086   0.1256754), wk =   0.0039062
        k(   44) = (  -0.0005101   0.0007861   0.2520998), wk =   0.0039062
        k(   45) = (  -0.0009250  -0.1241364   0.3785242), wk =   0.0039062
        k(   46) = (  -0.0013398  -0.2490589   0.5049487), wk =   0.0039062
        k(   47) = (   0.0015640   0.6253986  -0.3800222), wk =   0.0039062
        k(   48) = (   0.0011492   0.5004761  -0.2535978), wk =   0.0039062
        k(   49) = (   0.0007343   0.3755536  -0.1271734), wk =   0.0039062
        k(   50) = (   0.0003195   0.2506311  -0.0007490), wk =   0.0039062
        k(   51) = (  -0.1249126   0.2509897   0.1251164), wk =   0.0039062
        k(   52) = (  -0.1253274   0.1260672   0.2515408), wk =   0.0039062
        k(   53) = (  -0.1257422   0.0011447   0.3779652), wk =   0.0039062
        k(   54) = (  -0.1261570  -0.1237778   0.5043896), wk =   0.0039062
        k(   55) = (  -0.1232532   0.7506797  -0.3805813), wk =   0.0039062
        k(   56) = (  -0.1236681   0.6257572  -0.2541568), wk =   0.0039062
        k(   57) = (  -0.1240829   0.5008347  -0.1277324), wk =   0.0039062
        k(   58) = (  -0.1244977   0.3759122  -0.0013080), wk =   0.0039062
        k(   59) = (  -0.2497298   0.3762709   0.1245574), wk =   0.0039062
        k(   60) = (  -0.2501446   0.2513484   0.2509818), wk =   0.0039062
        k(   61) = (  -0.2505595   0.1264259   0.3774062), wk =   0.0039062
        k(   62) = (  -0.2509743   0.0015034   0.5038306), wk =   0.0039062
        k(   63) = (  -0.2480705   0.8759609  -0.3811403), wk =   0.0039062
        k(   64) = (  -0.2484853   0.7510384  -0.2547159), wk =   0.0039062
        k(   65) = (  -0.2489001   0.6261159  -0.1282915), wk =   0.0039062
        k(   66) = (  -0.2493150   0.5011934  -0.0018670), wk =   0.0039062
        k(   67) = (   0.6239909  -0.5006972   0.1284706), wk =   0.0039062
        k(   68) = (   0.6235761  -0.6256197   0.2548950), wk =   0.0039062
        k(   69) = (   0.6231613  -0.7505422   0.3813194), wk =   0.0039062
        k(   70) = (   0.6227464  -0.8754647   0.5077438), wk =   0.0039062
        k(   71) = (   0.6256502  -0.0010072  -0.3772271), wk =   0.0039062
        k(   72) = (   0.6252354  -0.1259297  -0.2508027), wk =   0.0039062
        k(   73) = (   0.6248206  -0.2508522  -0.1243783), wk =   0.0039062
        k(   74) = (   0.6244058  -0.3757747   0.0020462), wk =   0.0039062
        k(   75) = (   0.4991737  -0.3754160   0.1279115), wk =   0.0039062
        k(   76) = (   0.4987588  -0.5003385   0.2543360), wk =   0.0039062
        k(   77) = (   0.4983440  -0.6252610   0.3807604), wk =   0.0039062
        k(   78) = (   0.4979292  -0.7501835   0.5071848), wk =   0.0039062
        k(   79) = (   0.5008330   0.1242740  -0.3777861), wk =   0.0039062
        k(   80) = (   0.5004182  -0.0006485  -0.2513617), wk =   0.0039062
        k(   81) = (   0.5000033  -0.1255710  -0.1249373), wk =   0.0039062
        k(   82) = (   0.4995885  -0.2504935   0.0014871), wk =   0.0039062
        k(   83) = (   0.3743564  -0.2501349   0.1273525), wk =   0.0039062
        k(   84) = (   0.3739416  -0.3750574   0.2537769), wk =   0.0039062
        k(   85) = (   0.3735268  -0.4999799   0.3802013), wk =   0.0039062
        k(   86) = (   0.3731119  -0.6249024   0.5066257), wk =   0.0039062
        k(   87) = (   0.3760157   0.2495551  -0.3783451), wk =   0.0039062
        k(   88) = (   0.3756009   0.1246326  -0.2519207), wk =   0.0039062
        k(   89) = (   0.3751861  -0.0002899  -0.1254963), wk =   0.0039062
        k(   90) = (   0.3747713  -0.1252124   0.0009281), wk =   0.0039062
        k(   91) = (   0.2495392  -0.1248537   0.1267935), wk =   0.0039062
        k(   92) = (   0.2491244  -0.2497762   0.2532179), wk =   0.0039062
        k(   93) = (   0.2487095  -0.3746987   0.3796423), wk =   0.0039062
        k(   94) = (   0.2482947  -0.4996212   0.5060667), wk =   0.0039062
        k(   95) = (   0.2511985   0.3748363  -0.3789042), wk =   0.0039062
        k(   96) = (   0.2507837   0.2499138  -0.2524798), wk =   0.0039062
        k(   97) = (   0.2503688   0.1249913  -0.1260553), wk =   0.0039062
        k(   98) = (   0.2499540   0.0000688   0.0003691), wk =   0.0039062
        k(   99) = (   0.2494439   0.0008548   0.2524689), wk =   0.0039062
        k(  100) = (   0.2490290  -0.1240677   0.3788933), wk =   0.0039062
        k(  101) = (   0.2486142  -0.2489902   0.5053177), wk =   0.0039062
        k(  102) = (   0.2481994  -0.3739127   0.6317421), wk =   0.0039062
        k(  103) = (   0.2511032   0.5005448  -0.2532287), wk =   0.0039062
        k(  104) = (   0.2506884   0.3756223  -0.1268043), wk =   0.0039062
        k(  105) = (   0.2502735   0.2506998  -0.0003799), wk =   0.0039062
        k(  106) = (   0.2498587   0.1257773   0.1260445), wk =   0.0039062
        k(  107) = (   0.1246266   0.1261360   0.2519099), wk =   0.0039062
        k(  108) = (   0.1242118   0.0012135   0.3783343), wk =   0.0039062
        k(  109) = (   0.1237970  -0.1237090   0.5047587), wk =   0.0039062
        k(  110) = (   0.1233821  -0.2486315   0.6311831), wk =   0.0039062
        k(  111) = (   0.1262859   0.6258260  -0.2537878), wk =   0.0039062
        k(  112) = (   0.1258711   0.5009035  -0.1273634), wk =   0.0039062
        k(  113) = (   0.1254563   0.3759810  -0.0009390), wk =   0.0039062
        k(  114) = (   0.1250414   0.2510585   0.1254855), wk =   0.0039062
        k(  115) = (  -0.0001906   0.2514171   0.2513508), wk =   0.0039062
        k(  116) = (  -0.0006055   0.1264946   0.3777753), wk =   0.0039062
        k(  117) = (  -0.0010203   0.0015721   0.5041997), wk =   0.0039062
        k(  118) = (  -0.0014351  -0.1233504   0.6306241), wk =   0.0039062
        k(  119) = (   0.0014687   0.7511071  -0.2543468), wk =   0.0039062
        k(  120) = (   0.0010539   0.6261846  -0.1279224), wk =   0.0039062
        k(  121) = (   0.0006390   0.5012621  -0.0014980), wk =   0.0039062
        k(  122) = (   0.0002242   0.3763396   0.1249264), wk =   0.0039062
        k(  123) = (  -0.1250079   0.3766983   0.2507918), wk =   0.0039062
        k(  124) = (  -0.1254227   0.2517758   0.3772162), wk =   0.0039062
        k(  125) = (  -0.1258375   0.1268533   0.5036406), wk =   0.0039062
        k(  126) = (  -0.1262524   0.0019308   0.6300651), wk =   0.0039062
        k(  127) = (  -0.1233486   0.8763883  -0.2549058), wk =   0.0039062
        k(  128) = (  -0.1237634   0.7514658  -0.1284814), wk =   0.0039062
        k(  129) = (  -0.1241782   0.6265433  -0.0020570), wk =   0.0039062
        k(  130) = (  -0.1245930   0.5016208   0.1243674), wk =   0.0039062
        k(  131) = (   0.7487129  -0.5002698   0.2547050), wk =   0.0039062
        k(  132) = (   0.7482980  -0.6251923   0.3811294), wk =   0.0039062
        k(  133) = (   0.7478832  -0.7501148   0.5075538), wk =   0.0039062
        k(  134) = (   0.7474684  -0.8750373   0.6339783), wk =   0.0039062
        k(  135) = (   0.7503722  -0.0005798  -0.2509926), wk =   0.0039062
        k(  136) = (   0.7499573  -0.1255023  -0.1245682), wk =   0.0039062
        k(  137) = (   0.7495425  -0.2504248   0.0018562), wk =   0.0039062
        k(  138) = (   0.7491277  -0.3753473   0.1282806), wk =   0.0039062
        k(  139) = (   0.6238956  -0.3749886   0.2541460), wk =   0.0039062
        k(  140) = (   0.6234808  -0.4999111   0.3805704), wk =   0.0039062
        k(  141) = (   0.6230660  -0.6248336   0.5069948), wk =   0.0039062
        k(  142) = (   0.6226511  -0.7497561   0.6334192), wk =   0.0039062
        k(  143) = (   0.6255549   0.1247014  -0.2515517), wk =   0.0039062
        k(  144) = (   0.6251401  -0.0002211  -0.1251272), wk =   0.0039062
        k(  145) = (   0.6247253  -0.1251436   0.0012972), wk =   0.0039062
        k(  146) = (   0.6243104  -0.2500661   0.1277216), wk =   0.0039062
        k(  147) = (   0.4990784  -0.2497075   0.2535870), wk =   0.0039062
        k(  148) = (   0.4986635  -0.3746300   0.3800114), wk =   0.0039062
        k(  149) = (   0.4982487  -0.4995525   0.5064358), wk =   0.0039062
        k(  150) = (   0.4978339  -0.6244750   0.6328602), wk =   0.0039062
        k(  151) = (   0.5007377   0.2499825  -0.2521107), wk =   0.0039062
        k(  152) = (   0.5003229   0.1250600  -0.1256863), wk =   0.0039062
        k(  153) = (   0.4999080   0.0001375   0.0007381), wk =   0.0039062
        k(  154) = (   0.4994932  -0.1247850   0.1271626), wk =   0.0039062
        k(  155) = (   0.3742611  -0.1244263   0.2530279), wk =   0.0039062
        k(  156) = (   0.3738463  -0.2493488   0.3794523), wk =   0.0039062
        k(  157) = (   0.3734315  -0.3742713   0.5058768), wk =   0.0039062
        k(  158) = (   0.3730166  -0.4991938   0.6323012), wk =   0.0039062
        k(  159) = (   0.3759204   0.3752637  -0.2526697), wk =   0.0039062
        k(  160) = (   0.3755056   0.2503412  -0.1262453), wk =   0.0039062
        k(  161) = (   0.3750908   0.1254187   0.0001791), wk =   0.0039062
        k(  162) = (   0.3746759   0.0004962   0.1266035), wk =   0.0039062
        k(  163) = (   0.3741658   0.0012823   0.3787034), wk =   0.0039062
        k(  164) = (   0.3737510  -0.1236402   0.5051278), wk =   0.0039062
        k(  165) = (   0.3733361  -0.2485627   0.6315522), wk =   0.0039062
        k(  166) = (   0.3729213  -0.3734852   0.7579766), wk =   0.0039062
        k(  167) = (   0.3758251   0.5009722  -0.1269943), wk =   0.0039062
        k(  168) = (   0.3754103   0.3760497  -0.0005699), wk =   0.0039062
        k(  169) = (   0.3749955   0.2511273   0.1258545), wk =   0.0039062
        k(  170) = (   0.3745806   0.1262048   0.2522789), wk =   0.0039062
        k(  171) = (   0.2493486   0.1265634   0.3781443), wk =   0.0039062
        k(  172) = (   0.2489337   0.0016409   0.5045687), wk =   0.0039062
        k(  173) = (   0.2485189  -0.1232816   0.6309932), wk =   0.0039062
        k(  174) = (   0.2481041  -0.2482041   0.7574176), wk =   0.0039062
        k(  175) = (   0.2510079   0.6262534  -0.1275533), wk =   0.0039062
        k(  176) = (   0.2505930   0.5013309  -0.0011289), wk =   0.0039062
        k(  177) = (   0.2501782   0.3764084   0.1252955), wk =   0.0039062
        k(  178) = (   0.2497634   0.2514859   0.2517199), wk =   0.0039062
        k(  179) = (   0.1245313   0.2518446   0.3775853), wk =   0.0039062
        k(  180) = (   0.1241165   0.1269221   0.5040097), wk =   0.0039062
        k(  181) = (   0.1237016   0.0019996   0.6304341), wk =   0.0039062
        k(  182) = (   0.1232868  -0.1229229   0.7568585), wk =   0.0039062
        k(  183) = (   0.1261906   0.7515345  -0.1281124), wk =   0.0039062
        k(  184) = (   0.1257758   0.6266121  -0.0016879), wk =   0.0039062
        k(  185) = (   0.1253610   0.5016896   0.1247365), wk =   0.0039062
        k(  186) = (   0.1249461   0.3767671   0.2511609), wk =   0.0039062
        k(  187) = (  -0.0002859   0.3771257   0.3770263), wk =   0.0039062
        k(  188) = (  -0.0007008   0.2522032   0.5034507), wk =   0.0039062
        k(  189) = (  -0.0011156   0.1272807   0.6298751), wk =   0.0039062
        k(  190) = (  -0.0015304   0.0023582   0.7562995), wk =   0.0039062
        k(  191) = (   0.0013734   0.8768157  -0.1286714), wk =   0.0039062
        k(  192) = (   0.0009585   0.7518932  -0.0022470), wk =   0.0039062
        k(  193) = (   0.0005437   0.6269707   0.1241774), wk =   0.0039062
        k(  194) = (   0.0001289   0.5020482   0.2506019), wk =   0.0039062
        k(  195) = (   0.8734348  -0.4998423   0.3809395), wk =   0.0039062
        k(  196) = (   0.8730200  -0.6247648   0.5073639), wk =   0.0039062
        k(  197) = (   0.8726051  -0.7496873   0.6337883), wk =   0.0039062
        k(  198) = (   0.8721903  -0.8746098   0.7602127), wk =   0.0039062
        k(  199) = (   0.8750941  -0.0001524  -0.1247582), wk =   0.0039062
        k(  200) = (   0.8746793  -0.1250749   0.0016662), wk =   0.0039062
        k(  201) = (   0.8742645  -0.2499973   0.1280907), wk =   0.0039062
        k(  202) = (   0.8738496  -0.3749198   0.2545151), wk =   0.0039062
        k(  203) = (   0.7486175  -0.3745612   0.3803804), wk =   0.0039062
        k(  204) = (   0.7482027  -0.4994837   0.5068049), wk =   0.0039062
        k(  205) = (   0.7477879  -0.6244062   0.6332293), wk =   0.0039062
        k(  206) = (   0.7473731  -0.7493287   0.7596537), wk =   0.0039062
        k(  207) = (   0.7502769   0.1251288  -0.1253172), wk =   0.0039062
        k(  208) = (   0.7498620   0.0002063   0.0011072), wk =   0.0039062
        k(  209) = (   0.7494472  -0.1247162   0.1275316), wk =   0.0039062
        k(  210) = (   0.7490324  -0.2496387   0.2539560), wk =   0.0039062
        k(  211) = (   0.6238003  -0.2492800   0.3798214), wk =   0.0039062
        k(  212) = (   0.6233855  -0.3742025   0.5062458), wk =   0.0039062
        k(  213) = (   0.6229706  -0.4991250   0.6326702), wk =   0.0039062
        k(  214) = (   0.6225558  -0.6240475   0.7590947), wk =   0.0039062
        k(  215) = (   0.6254596   0.2504099  -0.1258762), wk =   0.0039062
        k(  216) = (   0.6250448   0.1254874   0.0005482), wk =   0.0039062
        k(  217) = (   0.6246300   0.0005650   0.1269726), wk =   0.0039062
        k(  218) = (   0.6242151  -0.1243575   0.2533970), wk =   0.0039062
        k(  219) = (   0.4989830  -0.1239989   0.3792624), wk =   0.0039062
        k(  220) = (   0.4985682  -0.2489214   0.5056868), wk =   0.0039062
        k(  221) = (   0.4981534  -0.3738439   0.6321112), wk =   0.0039062
        k(  222) = (   0.4977386  -0.4987664   0.7585356), wk =   0.0039062
        k(  223) = (   0.5006424   0.3756911  -0.1264353), wk =   0.0039062
        k(  224) = (   0.5002275   0.2507686  -0.0000109), wk =   0.0039062
        k(  225) = (   0.4998127   0.1258461   0.1264136), wk =   0.0039062
        k(  226) = (   0.4993979   0.0009236   0.2528380), wk =   0.0039062
        k(  227) = (  -0.4988877  -0.0017097  -0.5049378), wk =   0.0019531
        k(  228) = (  -0.4993026  -0.1266322  -0.3785134), wk =   0.0039062
        k(  229) = (  -0.4997174  -0.2515547  -0.2520890), wk =   0.0039062
        k(  230) = (  -0.5001322  -0.3764772  -0.1256646), wk =   0.0039062
        k(  231) = (  -0.4972284   0.4979803  -1.0106355), wk =   0.0019531
        k(  232) = (  -0.6237050   0.1235715  -0.5054968), wk =   0.0039062
        k(  233) = (  -0.6241198  -0.0013510  -0.3790724), wk =   0.0039062
        k(  234) = (  -0.6245346  -0.1262735  -0.2526480), wk =   0.0039062
        k(  235) = (  -0.6249495  -0.2511960  -0.1262236), wk =   0.0039062
        k(  236) = (  -0.6220457   0.6232615  -1.0111945), wk =   0.0039062
        k(  237) = (  -0.6224605   0.4983390  -0.8847701), wk =   0.0039062
        k(  238) = (  -0.6228753   0.3734165  -0.7583457), wk =   0.0039062
        k(  239) = (  -0.6232902   0.2484940  -0.6319213), wk =   0.0039062
        k(  240) = (  -0.7485222   0.2488526  -0.5060559), wk =   0.0039062
        k(  241) = (  -0.7489371   0.1239301  -0.3796315), wk =   0.0039062
        k(  242) = (  -0.7493519  -0.0009924  -0.2532070), wk =   0.0039062
        k(  243) = (  -0.7497667  -0.1259149  -0.1267826), wk =   0.0039062
        k(  244) = (  -0.7468629   0.7485426  -1.0117535), wk =   0.0039062
        k(  245) = (  -0.7472777   0.6236201  -0.8853291), wk =   0.0039062
        k(  246) = (  -0.7476926   0.4986976  -0.7589047), wk =   0.0039062
        k(  247) = (  -0.7481074   0.3737751  -0.6324803), wk =   0.0039062
        k(  248) = (  -0.8733395   0.3741338  -0.5066149), wk =   0.0039062
        k(  249) = (  -0.8737543   0.2492113  -0.3801905), wk =   0.0039062
        k(  250) = (  -0.8741691   0.1242888  -0.2537661), wk =   0.0039062
        k(  251) = (  -0.8745840  -0.0006337  -0.1273417), wk =   0.0039062
        k(  252) = (  -0.8716802   0.8738238  -1.0123125), wk =   0.0039062
        k(  253) = (  -0.8720950   0.7489013  -0.8858881), wk =   0.0039062
        k(  254) = (  -0.8725098   0.6239788  -0.7594637), wk =   0.0039062
        k(  255) = (  -0.8729246   0.4990563  -0.6330393), wk =   0.0039062
        k(  256) = (   0.0003813  -0.5028343  -0.5027017), wk =   0.0019531
        k(  257) = (  -0.0000336  -0.6277568  -0.3762773), wk =   0.0039062
        k(  258) = (  -0.0004484  -0.7526793  -0.2498529), wk =   0.0039062
        k(  259) = (  -0.0008632  -0.8776018  -0.1234285), wk =   0.0039062
        k(  260) = (   0.0020406  -0.0031443  -1.0083993), wk =   0.0019531

                       cryst. coord.
        k(    1) = (   0.0000000   0.0000000   0.0000000), wk =   0.0019531
        k(    2) = (   0.0000000   0.0000000   0.1250000), wk =   0.0039062
        k(    3) = (   0.0000000   0.0000000   0.2500000), wk =   0.0039062
        k(    4) = (   0.0000000   0.0000000   0.3750000), wk =   0.0039062
        k(    5) = (   0.0000000  -0.0000000  -0.5000000), wk =   0.0019531
        k(    6) = (   0.0000000   0.1250000  -0.0000000), wk =   0.0039062
        k(    7) = (   0.0000000   0.1250000   0.1250000), wk =   0.0039062
        k(    8) = (   0.0000000   0.1250000   0.2500000), wk =   0.0039062
        k(    9) = (  -0.0000000   0.1250000   0.3750000), wk =   0.0039062
        k(   10) = (   0.0000000   0.1250000  -0.5000000), wk =   0.0039062
        k(   11) = (   0.0000000   0.1250000  -0.3750000), wk =   0.0039062
        k(   12) = (   0.0000000   0.1250000  -0.2500000), wk =   0.0039062
        k(   13) = (   0.0000000   0.1250000  -0.1250000), wk =   0.0039062
        k(   14) = (   0.0000000   0.2500000  -0.0000000), wk =   0.0039062
        k(   15) = (   0.0000000   0.2500000   0.1250000), wk =   0.0039062
        k(   16) = (   0.0000000   0.2500000   0.2500000), wk =   0.0039062
        k(   17) = (   0.0000000   0.2500000   0.3750000), wk =   0.0039062
        k(   18) = (   0.0000000   0.2500000  -0.5000000), wk =   0.0039062
        k(   19) = (   0.0000000   0.2500000  -0.3750000), wk =   0.0039062
        k(   20) = (   0.0000000   0.2500000  -0.2500000), wk =   0.0039062
        k(   21) = (   0.0000000   0.2500000  -0.1250000), wk =   0.0039062
        k(   22) = (   0.0000000   0.3750000  -0.0000000), wk =   0.0039062
        k(   23) = (   0.0000000   0.3750000   0.1250000), wk =   0.0039062
        k(   24) = (   0.0000000   0.3750000   0.2500000), wk =   0.0039062
        k(   25) = (   0.0000000   0.3750000   0.3750000), wk =   0.0039062
        k(   26) = (   0.0000000   0.3750000  -0.5000000), wk =   0.0039062
        k(   27) = (   0.0000000   0.3750000  -0.3750000), wk =   0.0039062
        k(   28) = (   0.0000000   0.3750000  -0.2500000), wk =   0.0039062
        k(   29) = (   0.0000000   0.3750000  -0.1250000), wk =   0.0039062
        k(   30) = (  -0.0000000  -0.5000000   0.0000000), wk =   0.0019531
        k(   31) = (  -0.0000000  -0.5000000   0.1250000), wk =   0.0039062
        k(   32) = (  -0.0000000  -0.5000000   0.2500000), wk =   0.0039062
        k(   33) = (  -0.0000000  -0.5000000   0.3750000), wk =   0.0039062
        k(   34) = (  -0.0000000  -0.5000000  -0.5000000), wk =   0.0019531
        k(   35) = (   0.1250000   0.0000000   0.0000000), wk =   0.0039062
        k(   36) = (   0.1250000   0.0000000   0.1250000), wk =   0.0039062
        k(   37) = (   0.1250000   0.0000000   0.2500000), wk =   0.0039062
        k(   38) = (   0.1250000   0.0000000   0.3750000), wk =   0.0039062
        k(   39) = (   0.1250000   0.0000000  -0.5000000), wk =   0.0039062
        k(   40) = (   0.1250000  -0.0000000  -0.3750000), wk =   0.0039062
        k(   41) = (   0.1250000   0.0000000  -0.2500000), wk =   0.0039062
        k(   42) = (   0.1250000  -0.0000000  -0.1250000), wk =   0.0039062
        k(   43) = (   0.1250000   0.1250000   0.0000000), wk =   0.0039062
        k(   44) = (   0.1250000   0.1250000   0.1250000), wk =   0.0039062
        k(   45) = (   0.1250000   0.1250000   0.2500000), wk =   0.0039062
        k(   46) = (   0.1250000   0.1250000   0.3750000), wk =   0.0039062
        k(   47) = (   0.1250000   0.1250000  -0.5000000), wk =   0.0039062
        k(   48) = (   0.1250000   0.1250000  -0.3750000), wk =   0.0039062
        k(   49) = (   0.1250000   0.1250000  -0.2500000), wk =   0.0039062
        k(   50) = (   0.1250000   0.1250000  -0.1250000), wk =   0.0039062
        k(   51) = (   0.1250000   0.2500000   0.0000000), wk =   0.0039062
        k(   52) = (   0.1250000   0.2500000   0.1250000), wk =   0.0039062
        k(   53) = (   0.1250000   0.2500000   0.2500000), wk =   0.0039062
        k(   54) = (   0.1250000   0.2500000   0.3750000), wk =   0.0039062
        k(   55) = (   0.1250000   0.2500000  -0.5000000), wk =   0.0039062
        k(   56) = (   0.1250000   0.2500000  -0.3750000), wk =   0.0039062
        k(   57) = (   0.1250000   0.2500000  -0.2500000), wk =   0.0039062
        k(   58) = (   0.1250000   0.2500000  -0.1250000), wk =   0.0039062
        k(   59) = (   0.1250000   0.3750000  -0.0000000), wk =   0.0039062
        k(   60) = (   0.1250000   0.3750000   0.1250000), wk =   0.0039062
        k(   61) = (   0.1250000   0.3750000   0.2500000), wk =   0.0039062
        k(   62) = (   0.1250000   0.3750000   0.3750000), wk =   0.0039062
        k(   63) = (   0.1250000   0.3750000  -0.5000000), wk =   0.0039062
        k(   64) = (   0.1250000   0.3750000  -0.3750000), wk =   0.0039062
        k(   65) = (   0.1250000   0.3750000  -0.2500000), wk =   0.0039062
        k(   66) = (   0.1250000   0.3750000  -0.1250000), wk =   0.0039062
        k(   67) = (   0.1250000  -0.5000000  -0.0000000), wk =   0.0039062
        k(   68) = (   0.1250000  -0.5000000   0.1250000), wk =   0.0039062
        k(   69) = (   0.1250000  -0.5000000   0.2500000), wk =   0.0039062
        k(   70) = (   0.1250000  -0.5000000   0.3750000), wk =   0.0039062
        k(   71) = (   0.1250000  -0.5000000  -0.5000000), wk =   0.0039062
        k(   72) = (   0.1250000  -0.5000000  -0.3750000), wk =   0.0039062
        k(   73) = (   0.1250000  -0.5000000  -0.2500000), wk =   0.0039062
        k(   74) = (   0.1250000  -0.5000000  -0.1250000), wk =   0.0039062
        k(   75) = (   0.1250000  -0.3750000   0.0000000), wk =   0.0039062
        k(   76) = (   0.1250000  -0.3750000   0.1250000), wk =   0.0039062
        k(   77) = (   0.1250000  -0.3750000   0.2500000), wk =   0.0039062
        k(   78) = (   0.1250000  -0.3750000   0.3750000), wk =   0.0039062
        k(   79) = (   0.1250000  -0.3750000  -0.5000000), wk =   0.0039062
        k(   80) = (   0.1250000  -0.3750000  -0.3750000), wk =   0.0039062
        k(   81) = (   0.1250000  -0.3750000  -0.2500000), wk =   0.0039062
        k(   82) = (   0.1250000  -0.3750000  -0.1250000), wk =   0.0039062
        k(   83) = (   0.1250000  -0.2500000   0.0000000), wk =   0.0039062
        k(   84) = (   0.1250000  -0.2500000   0.1250000), wk =   0.0039062
        k(   85) = (   0.1250000  -0.2500000   0.2500000), wk =   0.0039062
        k(   86) = (   0.1250000  -0.2500000   0.3750000), wk =   0.0039062
        k(   87) = (   0.1250000  -0.2500000  -0.5000000), wk =   0.0039062
        k(   88) = (   0.1250000  -0.2500000  -0.3750000), wk =   0.0039062
        k(   89) = (   0.1250000  -0.2500000  -0.2500000), wk =   0.0039062
        k(   90) = (   0.1250000  -0.2500000  -0.1250000), wk =   0.0039062
        k(   91) = (   0.1250000  -0.1250000   0.0000000), wk =   0.0039062
        k(   92) = (   0.1250000  -0.1250000   0.1250000), wk =   0.0039062
        k(   93) = (   0.1250000  -0.1250000   0.2500000), wk =   0.0039062
        k(   94) = (   0.1250000  -0.1250000   0.3750000), wk =   0.0039062
        k(   95) = (   0.1250000  -0.1250000  -0.5000000), wk =   0.0039062
        k(   96) = (   0.1250000  -0.1250000  -0.3750000), wk =   0.0039062
        k(   97) = (   0.1250000  -0.1250000  -0.2500000), wk =   0.0039062
        k(   98) = (   0.1250000  -0.1250000  -0.1250000), wk =   0.0039062
        k(   99) = (   0.2500000   0.0000000   0.0000000), wk =   0.0039062
        k(  100) = (   0.2500000   0.0000000   0.1250000), wk =   0.0039062
        k(  101) = (   0.2500000   0.0000000   0.2500000), wk =   0.0039062
        k(  102) = (   0.2500000   0.0000000   0.3750000), wk =   0.0039062
        k(  103) = (   0.2500000   0.0000000  -0.5000000), wk =   0.0039062
        k(  104) = (   0.2500000   0.0000000  -0.3750000), wk =   0.0039062
        k(  105) = (   0.2500000  -0.0000000  -0.2500000), wk =   0.0039062
        k(  106) = (   0.2500000   0.0000000  -0.1250000), wk =   0.0039062
        k(  107) = (   0.2500000   0.1250000   0.0000000), wk =   0.0039062
        k(  108) = (   0.2500000   0.1250000   0.1250000), wk =   0.0039062
        k(  109) = (   0.2500000   0.1250000   0.2500000), wk =   0.0039062
        k(  110) = (   0.2500000   0.1250000   0.3750000), wk =   0.0039062
        k(  111) = (   0.2500000   0.1250000  -0.5000000), wk =   0.0039062
        k(  112) = (   0.2500000   0.1250000  -0.3750000), wk =   0.0039062
        k(  113) = (   0.2500000   0.1250000  -0.2500000), wk =   0.0039062
        k(  114) = (   0.2500000   0.1250000  -0.1250000), wk =   0.0039062
        k(  115) = (   0.2500000   0.2500000   0.0000000), wk =   0.0039062
        k(  116) = (   0.2500000   0.2500000   0.1250000), wk =   0.0039062
        k(  117) = (   0.2500000   0.2500000   0.2500000), wk =   0.0039062
        k(  118) = (   0.2500000   0.2500000   0.3750000), wk =   0.0039062
        k(  119) = (   0.2500000   0.2500000  -0.5000000), wk =   0.0039062
        k(  120) = (   0.2500000   0.2500000  -0.3750000), wk =   0.0039062
        k(  121) = (   0.2500000   0.2500000  -0.2500000), wk =   0.0039062
        k(  122) = (   0.2500000   0.2500000  -0.1250000), wk =   0.0039062
        k(  123) = (   0.2500000   0.3750000  -0.0000000), wk =   0.0039062
        k(  124) = (   0.2500000   0.3750000   0.1250000), wk =   0.0039062
        k(  125) = (   0.2500000   0.3750000   0.2500000), wk =   0.0039062
        k(  126) = (   0.2500000   0.3750000   0.3750000), wk =   0.0039062
        k(  127) = (   0.2500000   0.3750000  -0.5000000), wk =   0.0039062
        k(  128) = (   0.2500000   0.3750000  -0.3750000), wk =   0.0039062
        k(  129) = (   0.2500000   0.3750000  -0.2500000), wk =   0.0039062
        k(  130) = (   0.2500000   0.3750000  -0.1250000), wk =   0.0039062
        k(  131) = (   0.2500000  -0.5000000   0.0000000), wk =   0.0039062
        k(  132) = (   0.2500000  -0.5000000   0.1250000), wk =   0.0039062
        k(  133) = (   0.2500000  -0.5000000   0.2500000), wk =   0.0039062
        k(  134) = (   0.2500000  -0.5000000   0.3750000), wk =   0.0039062
        k(  135) = (   0.2500000  -0.5000000  -0.5000000), wk =   0.0039062
        k(  136) = (   0.2500000  -0.5000000  -0.3750000), wk =   0.0039062
        k(  137) = (   0.2500000  -0.5000000  -0.2500000), wk =   0.0039062
        k(  138) = (   0.2500000  -0.5000000  -0.1250000), wk =   0.0039062
        k(  139) = (   0.2500000  -0.3750000   0.0000000), wk =   0.0039062
        k(  140) = (   0.2500000  -0.3750000   0.1250000), wk =   0.0039062
        k(  141) = (   0.2500000  -0.3750000   0.2500000), wk =   0.0039062
        k(  142) = (   0.2500000  -0.3750000   0.3750000), wk =   0.0039062
        k(  143) = (   0.2500000  -0.3750000  -0.5000000), wk =   0.0039062
        k(  144) = (   0.2500000  -0.3750000  -0.3750000), wk =   0.0039062
        k(  145) = (   0.2500000  -0.3750000  -0.2500000), wk =   0.0039062
        k(  146) = (   0.2500000  -0.3750000  -0.1250000), wk =   0.0039062
        k(  147) = (   0.2500000  -0.2500000   0.0000000), wk =   0.0039062
        k(  148) = (   0.2500000  -0.2500000   0.1250000), wk =   0.0039062
        k(  149) = (   0.2500000  -0.2500000   0.2500000), wk =   0.0039062
        k(  150) = (   0.2500000  -0.2500000   0.3750000), wk =   0.0039062
        k(  151) = (   0.2500000  -0.2500000  -0.5000000), wk =   0.0039062
        k(  152) = (   0.2500000  -0.2500000  -0.3750000), wk =   0.0039062
        k(  153) = (   0.2500000  -0.2500000  -0.2500000), wk =   0.0039062
        k(  154) = (   0.2500000  -0.2500000  -0.1250000), wk =   0.0039062
        k(  155) = (   0.2500000  -0.1250000   0.0000000), wk =   0.0039062
        k(  156) = (   0.2500000  -0.1250000   0.1250000), wk =   0.0039062
        k(  157) = (   0.2500000  -0.1250000   0.2500000), wk =   0.0039062
        k(  158) = (   0.2500000  -0.1250000   0.3750000), wk =   0.0039062
        k(  159) = (   0.2500000  -0.1250000  -0.5000000), wk =   0.0039062
        k(  160) = (   0.2500000  -0.1250000  -0.3750000), wk =   0.0039062
        k(  161) = (   0.2500000  -0.1250000  -0.2500000), wk =   0.0039062
        k(  162) = (   0.2500000  -0.1250000  -0.1250000), wk =   0.0039062
        k(  163) = (   0.3750000   0.0000000   0.0000000), wk =   0.0039062
        k(  164) = (   0.3750000   0.0000000   0.1250000), wk =   0.0039062
        k(  165) = (   0.3750000   0.0000000   0.2500000), wk =   0.0039062
        k(  166) = (   0.3750000   0.0000000   0.3750000), wk =   0.0039062
        k(  167) = (   0.3750000  -0.0000000  -0.5000000), wk =   0.0039062
        k(  168) = (   0.3750000  -0.0000000  -0.3750000), wk =   0.0039062
        k(  169) = (   0.3750000   0.0000000  -0.2500000), wk =   0.0039062
        k(  170) = (   0.3750000   0.0000000  -0.1250000), wk =   0.0039062
        k(  171) = (   0.3750000   0.1250000   0.0000000), wk =   0.0039062
        k(  172) = (   0.3750000   0.1250000   0.1250000), wk =   0.0039062
        k(  173) = (   0.3750000   0.1250000   0.2500000), wk =   0.0039062
        k(  174) = (   0.3750000   0.1250000   0.3750000), wk =   0.0039062
        k(  175) = (   0.3750000   0.1250000  -0.5000000), wk =   0.0039062
        k(  176) = (   0.3750000   0.1250000  -0.3750000), wk =   0.0039062
        k(  177) = (   0.3750000   0.1250000  -0.2500000), wk =   0.0039062
        k(  178) = (   0.3750000   0.1250000  -0.1250000), wk =   0.0039062
        k(  179) = (   0.3750000   0.2500000   0.0000000), wk =   0.0039062
        k(  180) = (   0.3750000   0.2500000   0.1250000), wk =   0.0039062
        k(  181) = (   0.3750000   0.2500000   0.2500000), wk =   0.0039062
        k(  182) = (   0.3750000   0.2500000   0.3750000), wk =   0.0039062
        k(  183) = (   0.3750000   0.2500000  -0.5000000), wk =   0.0039062
        k(  184) = (   0.3750000   0.2500000  -0.3750000), wk =   0.0039062
        k(  185) = (   0.3750000   0.2500000  -0.2500000), wk =   0.0039062
        k(  186) = (   0.3750000   0.2500000  -0.1250000), wk =   0.0039062
        k(  187) = (   0.3750000   0.3750000   0.0000000), wk =   0.0039062
        k(  188) = (   0.3750000   0.3750000   0.1250000), wk =   0.0039062
        k(  189) = (   0.3750000   0.3750000   0.2500000), wk =   0.0039062
        k(  190) = (   0.3750000   0.3750000   0.3750000), wk =   0.0039062
        k(  191) = (   0.3750000   0.3750000  -0.5000000), wk =   0.0039062
        k(  192) = (   0.3750000   0.3750000  -0.3750000), wk =   0.0039062
        k(  193) = (   0.3750000   0.3750000  -0.2500000), wk =   0.0039062
        k(  194) = (   0.3750000   0.3750000  -0.1250000), wk =   0.0039062
        k(  195) = (   0.3750000  -0.5000000   0.0000000), wk =   0.0039062
        k(  196) = (   0.3750000  -0.5000000   0.1250000), wk =   0.0039062
        k(  197) = (   0.3750000  -0.5000000   0.2500000), wk =   0.0039062
        k(  198) = (   0.3750000  -0.5000000   0.3750000), wk =   0.0039062
        k(  199) = (   0.3750000  -0.5000000  -0.5000000), wk =   0.0039062
        k(  200) = (   0.3750000  -0.5000000  -0.3750000), wk =   0.0039062
        k(  201) = (   0.3750000  -0.5000000  -0.2500000), wk =   0.0039062
        k(  202) = (   0.3750000  -0.5000000  -0.1250000), wk =   0.0039062
        k(  203) = (   0.3750000  -0.3750000   0.0000000), wk =   0.0039062
        k(  204) = (   0.3750000  -0.3750000   0.1250000), wk =   0.0039062
        k(  205) = (   0.3750000  -0.3750000   0.2500000), wk =   0.0039062
        k(  206) = (   0.3750000  -0.3750000   0.3750000), wk =   0.0039062
        k(  207) = (   0.3750000  -0.3750000  -0.5000000), wk =   0.0039062
        k(  208) = (   0.3750000  -0.3750000  -0.3750000), wk =   0.0039062
        k(  209) = (   0.3750000  -0.3750000  -0.2500000), wk =   0.0039062
        k(  210) = (   0.3750000  -0.3750000  -0.1250000), wk =   0.0039062
        k(  211) = (   0.3750000  -0.2500000   0.0000000), wk =   0.0039062
        k(  212) = (   0.3750000  -0.2500000   0.1250000), wk =   0.0039062
        k(  213) = (   0.3750000  -0.2500000   0.2500000), wk =   0.0039062
        k(  214) = (   0.3750000  -0.2500000   0.3750000), wk =   0.0039062
        k(  215) = (   0.3750000  -0.2500000  -0.5000000), wk =   0.0039062
        k(  216) = (   0.3750000  -0.2500000  -0.3750000), wk =   0.0039062
        k(  217) = (   0.3750000  -0.2500000  -0.2500000), wk =   0.0039062
        k(  218) = (   0.3750000  -0.2500000  -0.1250000), wk =   0.0039062
        k(  219) = (   0.3750000  -0.1250000   0.0000000), wk =   0.0039062
        k(  220) = (   0.3750000  -0.1250000   0.1250000), wk =   0.0039062
        k(  221) = (   0.3750000  -0.1250000   0.2500000), wk =   0.0039062
        k(  222) = (   0.3750000  -0.1250000   0.3750000), wk =   0.0039062
        k(  223) = (   0.3750000  -0.1250000  -0.5000000), wk =   0.0039062
        k(  224) = (   0.3750000  -0.1250000  -0.3750000), wk =   0.0039062
        k(  225) = (   0.3750000  -0.1250000  -0.2500000), wk =   0.0039062
        k(  226) = (   0.3750000  -0.1250000  -0.1250000), wk =   0.0039062
        k(  227) = (  -0.5000000   0.0000000   0.0000000), wk =   0.0019531
        k(  228) = (  -0.5000000   0.0000000   0.1250000), wk =   0.0039062
        k(  229) = (  -0.5000000  -0.0000000   0.2500000), wk =   0.0039062
        k(  230) = (  -0.5000000  -0.0000000   0.3750000), wk =   0.0039062
        k(  231) = (  -0.5000000  -0.0000000  -0.5000000), wk =   0.0019531
        k(  232) = (  -0.5000000   0.1250000   0.0000000), wk =   0.0039062
        k(  233) = (  -0.5000000   0.1250000   0.1250000), wk =   0.0039062
        k(  234) = (  -0.5000000   0.1250000   0.2500000), wk =   0.0039062
        k(  235) = (  -0.5000000   0.1250000   0.3750000), wk =   0.0039062
        k(  236) = (  -0.5000000   0.1250000  -0.5000000), wk =   0.0039062
        k(  237) = (  -0.5000000   0.1250000  -0.3750000), wk =   0.0039062
        k(  238) = (  -0.5000000   0.1250000  -0.2500000), wk =   0.0039062
        k(  239) = (  -0.5000000   0.1250000  -0.1250000), wk =   0.0039062
        k(  240) = (  -0.5000000   0.2500000   0.0000000), wk =   0.0039062
        k(  241) = (  -0.5000000   0.2500000   0.1250000), wk =   0.0039062
        k(  242) = (  -0.5000000   0.2500000   0.2500000), wk =   0.0039062
        k(  243) = (  -0.5000000   0.2500000   0.3750000), wk =   0.0039062
        k(  244) = (  -0.5000000   0.2500000  -0.5000000), wk =   0.0039062
        k(  245) = (  -0.5000000   0.2500000  -0.3750000), wk =   0.0039062
        k(  246) = (  -0.5000000   0.2500000  -0.2500000), wk =   0.0039062
        k(  247) = (  -0.5000000   0.2500000  -0.1250000), wk =   0.0039062
        k(  248) = (  -0.5000000   0.3750000  -0.0000000), wk =   0.0039062
        k(  249) = (  -0.5000000   0.3750000   0.1250000), wk =   0.0039062
        k(  250) = (  -0.5000000   0.3750000   0.2500000), wk =   0.0039062
        k(  251) = (  -0.5000000   0.3750000   0.3750000), wk =   0.0039062
        k(  252) = (  -0.5000000   0.3750000  -0.5000000), wk =   0.0039062
        k(  253) = (  -0.5000000   0.3750000  -0.3750000), wk =   0.0039062
        k(  254) = (  -0.5000000   0.3750000  -0.2500000), wk =   0.0039062
        k(  255) = (  -0.5000000   0.3750000  -0.1250000), wk =   0.0039062
        k(  256) = (  -0.5000000  -0.5000000   0.0000000), wk =   0.0019531
        k(  257) = (  -0.5000000  -0.5000000   0.1250000), wk =   0.0039062
        k(  258) = (  -0.5000000  -0.5000000   0.2500000), wk =   0.0039062
        k(  259) = (  -0.5000000  -0.5000000   0.3750000), wk =   0.0039062
        k(  260) = (  -0.5000000  -0.5000000  -0.5000000), wk =   0.0019531

     Dense  grid:   551981 G-vectors     FFT dimensions: ( 120, 120, 120)

     Smooth grid:   195099 G-vectors     FFT dimensions: (  80,  80,  80)

     Dynamical RAM for                 wfc:       4.09 MB

     Dynamical RAM for     wfc (w. buffer):    1067.16 MB

     Dynamical RAM for           str. fact:       0.63 MB

     Dynamical RAM for           local pot:       0.00 MB

     Dynamical RAM for          nlocal pot:       5.17 MB

     Dynamical RAM for                qrad:      36.15 MB

     Dynamical RAM for          rho,v,vnew:       6.48 MB

     Dynamical RAM for               rhoin:       2.16 MB

     Dynamical RAM for            rho*nmix:      20.22 MB

     Dynamical RAM for           G-vectors:       0.83 MB

     Dynamical RAM for          h,s,v(r/c):       2.22 MB

     Dynamical RAM for          <psi|beta>:       3.73 MB

     Dynamical RAM for                 psi:       8.18 MB

     Dynamical RAM for                hpsi:       8.18 MB

     Dynamical RAM for                spsi:       8.18 MB

     Dynamical RAM for      wfcinit/wfcrot:       7.24 MB

     Dynamical RAM for           addusdens:     432.76 MB

     Estimated static dynamical RAM per process >       1.10 GB

     Estimated max dynamical RAM per process >       1.54 GB

     Estimated total dynamical RAM >      61.52 GB

     Check: negative core charge=   -0.000002

     Initial potential from superposition of free atoms

     starting charge     175.8372, renormalised to     176.0000
     Starting wfcs are  208 randomized atomic wfcs +   12 random wfcs

     total cpu time spent up to now is      123.3 secs

     per-process dynamical memory:  1273.6 Mb

     Self-consistent Calculation

     iteration #  1     ecut=    44.00 Ry     beta= 0.10
     Davidson diagonalization with overlap

---- Real-time Memory Report at c_bands before calling an iterative solver
          1368 MiB given to the printing process from OS
          1243 MiB allocation reported by mallinfo(arena+hblkhd)
        712519 MiB available memory on the node where the printing process lives
------------------
     ethr =  1.00E-02,  avg # of iterations =  6.6

     Threshold (ethr) on eigenvalues was too large:
     Diagonalizing with lowered threshold

     Davidson diagonalization with overlap

---- Real-time Memory Report at c_bands before calling an iterative solver
          1831 MiB given to the printing process from OS
          1273 MiB allocation reported by mallinfo(arena+hblkhd)
        711131 MiB available memory on the node where the printing process lives
------------------
     ethr =  7.44E-04,  avg # of iterations =  3.0

     total cpu time spent up to now is     1103.2 secs

     total energy              =   -1215.90667740 Ry
     estimated scf accuracy    <       1.23829956 Ry

     iteration #  2     ecut=    44.00 Ry     beta= 0.10
     Davidson diagonalization with overlap

---- Real-time Memory Report at c_bands before calling an iterative solver
          1835 MiB given to the printing process from OS
          1273 MiB allocation reported by mallinfo(arena+hblkhd)
        710963 MiB available memory on the node where the printing process lives
------------------
     ethr =  7.04E-04,  avg # of iterations =  1.4

     total cpu time spent up to now is     1500.7 secs

     total energy              =   -1215.38305115 Ry
     estimated scf accuracy    <       1.06863860 Ry

     iteration #  3     ecut=    44.00 Ry     beta= 0.10
     Davidson diagonalization with overlap

---- Real-time Memory Report at c_bands before calling an iterative solver
          1837 MiB given to the printing process from OS
          1273 MiB allocation reported by mallinfo(arena+hblkhd)
        710911 MiB available memory on the node where the printing process lives
------------------
     ethr =  6.07E-04,  avg # of iterations =  3.2

     total cpu time spent up to now is     2001.0 secs

     total energy              =   -1215.57016869 Ry
     estimated scf accuracy    <       0.08553643 Ry

     iteration #  4     ecut=    44.00 Ry     beta= 0.10
     Davidson diagonalization with overlap

---- Real-time Memory Report at c_bands before calling an iterative solver
          1843 MiB given to the printing process from OS
          1273 MiB allocation reported by mallinfo(arena+hblkhd)
        710851 MiB available memory on the node where the printing process lives
------------------
     c_bands:  5 eigenvalues not converged
     c_bands:  3 eigenvalues not converged
     c_bands:  1 eigenvalues not converged
     c_bands:  1 eigenvalues not converged
     c_bands:  1 eigenvalues not converged
     c_bands:  1 eigenvalues not converged
     c_bands:  2 eigenvalues not converged
     c_bands:  2 eigenvalues not converged
     c_bands:  2 eigenvalues not converged
     c_bands:  2 eigenvalues not converged
     c_bands:  3 eigenvalues not converged
     c_bands:  1 eigenvalues not converged
     c_bands:  1 eigenvalues not converged
     c_bands:  1 eigenvalues not converged
     c_bands:  4 eigenvalues not converged
     c_bands:  4 eigenvalues not converged
     c_bands:  1 eigenvalues not converged
     c_bands:  2 eigenvalues not converged
     c_bands:  1 eigenvalues not converged
     c_bands:  1 eigenvalues not converged
     c_bands:  4 eigenvalues not converged
     c_bands:  3 eigenvalues not converged
     c_bands:  1 eigenvalues not converged
     c_bands:  1 eigenvalues not converged
     c_bands:  4 eigenvalues not converged
     c_bands:  2 eigenvalues not converged
     c_bands:  1 eigenvalues not converged
     c_bands:  1 eigenvalues not converged
     c_bands:  4 eigenvalues not converged
     c_bands:  2 eigenvalues not converged
     c_bands:  3 eigenvalues not converged
     c_bands:  1 eigenvalues not converged
     c_bands:  3 eigenvalues not converged
     c_bands:  2 eigenvalues not converged
     c_bands:  1 eigenvalues not converged
     c_bands:  3 eigenvalues not converged
     c_bands:  3 eigenvalues not converged
     c_bands:  3 eigenvalues not converged
     c_bands:  1 eigenvalues not converged
     c_bands:  1 eigenvalues not converged
     c_bands:  3 eigenvalues not converged
     c_bands:  2 eigenvalues not converged
     c_bands:  1 eigenvalues not converged
     c_bands:  1 eigenvalues not converged
     c_bands:  1 eigenvalues not converged
     c_bands:  5 eigenvalues not converged
     c_bands:  2 eigenvalues not converged
     c_bands:  1 eigenvalues not converged
     c_bands:  1 eigenvalues not converged
     c_bands:  1 eigenvalues not converged
     c_bands:  2 eigenvalues not converged
     c_bands:  2 eigenvalues not converged
     c_bands:  2 eigenvalues not converged
     c_bands:  1 eigenvalues not converged
     c_bands:  1 eigenvalues not converged
     c_bands:  3 eigenvalues not converged
     c_bands:  2 eigenvalues not converged
     c_bands:  2 eigenvalues not converged
     c_bands:  1 eigenvalues not converged
     c_bands:  5 eigenvalues not converged
     c_bands:  2 eigenvalues not converged
     c_bands:  3 eigenvalues not converged
     c_bands:  1 eigenvalues not converged
     c_bands:  2 eigenvalues not converged
     c_bands:  2 eigenvalues not converged
     c_bands:  1 eigenvalues not converged
     c_bands:  1 eigenvalues not converged
     c_bands:  1 eigenvalues not converged
     c_bands:  1 eigenvalues not converged
     c_bands:  1 eigenvalues not converged
     c_bands:  1 eigenvalues not converged
     c_bands:  1 eigenvalues not converged
     c_bands:  1 eigenvalues not converged
     c_bands:  2 eigenvalues not converged
     c_bands:  1 eigenvalues not converged
     c_bands:  4 eigenvalues not converged
     c_bands:  1 eigenvalues not converged
     c_bands:  2 eigenvalues not converged
     c_bands:  1 eigenvalues not converged
     c_bands:  3 eigenvalues not converged
     c_bands:  1 eigenvalues not converged
     c_bands:  1 eigenvalues not converged
     c_bands:  2 eigenvalues not converged
     c_bands:  1 eigenvalues not converged
     c_bands:  2 eigenvalues not converged
     c_bands:  2 eigenvalues not converged
     c_bands:  2 eigenvalues not converged
     c_bands:  1 eigenvalues not converged
     c_bands:  1 eigenvalues not converged
     c_bands:  1 eigenvalues not converged
     c_bands:  3 eigenvalues not converged
     c_bands:  3 eigenvalues not converged
     c_bands:  3 eigenvalues not converged
     c_bands:  1 eigenvalues not converged
     c_bands:  3 eigenvalues not converged
     c_bands:  1 eigenvalues not converged
     c_bands:  1 eigenvalues not converged
     c_bands:  3 eigenvalues not converged
     c_bands:  1 eigenvalues not converged
     c_bands:  1 eigenvalues not converged
     c_bands:  1 eigenvalues not converged
     c_bands:  1 eigenvalues not converged
     c_bands:  1 eigenvalues not converged
     c_bands:  1 eigenvalues not converged
     c_bands:  1 eigenvalues not converged
     c_bands:  3 eigenvalues not converged
     c_bands:  1 eigenvalues not converged
     c_bands:  2 eigenvalues not converged
     c_bands:  1 eigenvalues not converged
     c_bands:  1 eigenvalues not converged
     c_bands:  4 eigenvalues not converged
     c_bands:  2 eigenvalues not converged
     c_bands:  1 eigenvalues not converged
     c_bands:  3 eigenvalues not converged
     c_bands:  1 eigenvalues not converged
     c_bands:  2 eigenvalues not converged
     c_bands:  2 eigenvalues not converged
     ethr =  4.86E-05,  avg # of iterations = 18.9

     total cpu time spent up to now is     3182.0 secs

     total energy              =   -1215.56102085 Ry
     estimated scf accuracy    <       0.07009259 Ry

     iteration #  5     ecut=    44.00 Ry     beta= 0.10
     Davidson diagonalization with overlap

---- Real-time Memory Report at c_bands before calling an iterative solver
          1846 MiB given to the printing process from OS
          1273 MiB allocation reported by mallinfo(arena+hblkhd)
        710823 MiB available memory on the node where the printing process lives
------------------
     c_bands:  1 eigenvalues not converged
     ethr =  3.98E-05,  avg # of iterations =  2.4

     total cpu time spent up to now is     3673.1 secs

     total energy              =   -1215.54663458 Ry
     estimated scf accuracy    <       0.05703272 Ry

     iteration #  6     ecut=    44.00 Ry     beta= 0.10
     Davidson diagonalization with overlap

---- Real-time Memory Report at c_bands before calling an iterative solver
          1847 MiB given to the printing process from OS
          1273 MiB allocation reported by mallinfo(arena+hblkhd)
        710801 MiB available memory on the node where the printing process lives
------------------
     ethr =  3.24E-05,  avg # of iterations =  2.1

     total cpu time spent up to now is     4152.0 secs

     total energy              =   -1215.55792186 Ry
     estimated scf accuracy    <       0.00394639 Ry

     iteration #  7     ecut=    44.00 Ry     beta= 0.10
     Davidson diagonalization with overlap

---- Real-time Memory Report at c_bands before calling an iterative solver
          1847 MiB given to the printing process from OS
          1274 MiB allocation reported by mallinfo(arena+hblkhd)
        710828 MiB available memory on the node where the printing process lives
------------------
     c_bands:  2 eigenvalues not converged
     c_bands:  2 eigenvalues not converged
     c_bands:  1 eigenvalues not converged
     c_bands:  5 eigenvalues not converged
     c_bands:  5 eigenvalues not converged
     c_bands:  2 eigenvalues not converged
     c_bands:  2 eigenvalues not converged
     c_bands:  3 eigenvalues not converged
     c_bands:  1 eigenvalues not converged
     c_bands:  5 eigenvalues not converged
     c_bands:  4 eigenvalues not converged
     c_bands:  5 eigenvalues not converged
     c_bands:  1 eigenvalues not converged
     c_bands:  1 eigenvalues not converged
     c_bands:  1 eigenvalues not converged
     c_bands:  2 eigenvalues not converged
     c_bands:  3 eigenvalues not converged
     c_bands:  1 eigenvalues not converged
     c_bands:  5 eigenvalues not converged
     c_bands:  1 eigenvalues not converged
     c_bands:  2 eigenvalues not converged
     c_bands:  1 eigenvalues not converged
     c_bands:  2 eigenvalues not converged
     c_bands:  4 eigenvalues not converged
     c_bands:  1 eigenvalues not converged
     c_bands:  2 eigenvalues not converged
     c_bands:  2 eigenvalues not converged
     c_bands:  4 eigenvalues not converged
     c_bands:  1 eigenvalues not converged
     c_bands:  4 eigenvalues not converged
     c_bands:  4 eigenvalues not converged
     c_bands:  2 eigenvalues not converged
     c_bands:  2 eigenvalues not converged
     c_bands:  2 eigenvalues not converged
     c_bands:  3 eigenvalues not converged
     c_bands:  4 eigenvalues not converged
     c_bands:  5 eigenvalues not converged
     c_bands:  5 eigenvalues not converged
     c_bands:  1 eigenvalues not converged
     c_bands:  1 eigenvalues not converged
     c_bands:  2 eigenvalues not converged
     c_bands:  5 eigenvalues not converged
     c_bands:  1 eigenvalues not converged
     c_bands:  4 eigenvalues not converged
     c_bands:  4 eigenvalues not converged
     c_bands:  2 eigenvalues not converged
     c_bands:  4 eigenvalues not converged
     c_bands:  5 eigenvalues not converged
     c_bands:  5 eigenvalues not converged
     c_bands:  3 eigenvalues not converged
     c_bands:  4 eigenvalues not converged
     c_bands:  4 eigenvalues not converged
     c_bands:  1 eigenvalues not converged
     c_bands:  1 eigenvalues not converged
     c_bands:  5 eigenvalues not converged
     c_bands:  5 eigenvalues not converged
     c_bands:  5 eigenvalues not converged
     c_bands:  5 eigenvalues not converged
     c_bands:  1 eigenvalues not converged
     c_bands:  3 eigenvalues not converged
     c_bands:  5 eigenvalues not converged
     c_bands:  3 eigenvalues not converged
     c_bands:  5 eigenvalues not converged
     c_bands:  5 eigenvalues not converged
     c_bands:  5 eigenvalues not converged
     c_bands:  4 eigenvalues not converged
     c_bands:  1 eigenvalues not converged
     c_bands:  2 eigenvalues not converged
     c_bands:  5 eigenvalues not converged
     c_bands:  5 eigenvalues not converged
     c_bands:  5 eigenvalues not converged
     c_bands:  3 eigenvalues not converged
     c_bands:  2 eigenvalues not converged
     c_bands:  2 eigenvalues not converged
     c_bands:  3 eigenvalues not converged
     c_bands:  2 eigenvalues not converged
     c_bands:  4 eigenvalues not converged
     c_bands:  2 eigenvalues not converged
     c_bands:  3 eigenvalues not converged
     c_bands:  3 eigenvalues not converged
     c_bands:  4 eigenvalues not converged
     c_bands:  2 eigenvalues not converged
     c_bands:  5 eigenvalues not converged
     c_bands:  1 eigenvalues not converged
     c_bands:  4 eigenvalues not converged
     c_bands:  3 eigenvalues not converged
     c_bands:  2 eigenvalues not converged
     c_bands:  2 eigenvalues not converged
     c_bands:  2 eigenvalues not converged
     c_bands:  1 eigenvalues not converged
     c_bands:  4 eigenvalues not converged
     c_bands:  3 eigenvalues not converged
     c_bands:  3 eigenvalues not converged
     c_bands:  3 eigenvalues not converged
     c_bands:  3 eigenvalues not converged
     c_bands:  2 eigenvalues not converged
     c_bands:  4 eigenvalues not converged
     c_bands:  5 eigenvalues not converged
     c_bands:  5 eigenvalues not converged
     c_bands:  4 eigenvalues not converged
     c_bands:  2 eigenvalues not converged
     c_bands:  5 eigenvalues not converged
     c_bands:  2 eigenvalues not converged
     c_bands:  2 eigenvalues not converged
     c_bands:  4 eigenvalues not converged
     c_bands:  1 eigenvalues not converged
     c_bands:  4 eigenvalues not converged
     c_bands:  2 eigenvalues not converged
     c_bands:  5 eigenvalues not converged
     c_bands:  5 eigenvalues not converged
     c_bands:  1 eigenvalues not converged
     c_bands:  3 eigenvalues not converged
     c_bands:  5 eigenvalues not converged
     c_bands:  4 eigenvalues not converged
     c_bands:  1 eigenvalues not converged
     c_bands:  4 eigenvalues not converged
     c_bands:  4 eigenvalues not converged
     c_bands:  2 eigenvalues not converged
     c_bands:  5 eigenvalues not converged
     c_bands:  4 eigenvalues not converged
     c_bands:  2 eigenvalues not converged
     c_bands:  3 eigenvalues not converged
     c_bands:  1 eigenvalues not converged
     c_bands:  2 eigenvalues not converged
     c_bands:  1 eigenvalues not converged
     c_bands:  4 eigenvalues not converged
     c_bands:  5 eigenvalues not converged
     c_bands:  1 eigenvalues not converged
     c_bands:  2 eigenvalues not converged
     c_bands:  3 eigenvalues not converged
     c_bands:  4 eigenvalues not converged
     c_bands:  3 eigenvalues not converged
     c_bands:  1 eigenvalues not converged
     c_bands:  1 eigenvalues not converged
     c_bands:  2 eigenvalues not converged
     c_bands:  2 eigenvalues not converged
     c_bands:  1 eigenvalues not converged
     c_bands:  2 eigenvalues not converged
     c_bands:  3 eigenvalues not converged
     c_bands:  2 eigenvalues not converged
     c_bands:  1 eigenvalues not converged
     c_bands:  3 eigenvalues not converged
     c_bands:  4 eigenvalues not converged
     c_bands:  3 eigenvalues not converged
     c_bands:  1 eigenvalues not converged
     c_bands:  3 eigenvalues not converged
     c_bands:  5 eigenvalues not converged
     c_bands:  5 eigenvalues not converged
     c_bands:  4 eigenvalues not converged
     c_bands:  1 eigenvalues not converged
     c_bands:  5 eigenvalues not converged
     c_bands:  4 eigenvalues not converged
     c_bands:  5 eigenvalues not converged
     c_bands:  4 eigenvalues not converged
     c_bands:  2 eigenvalues not converged
     c_bands:  3 eigenvalues not converged
     c_bands:  2 eigenvalues not converged
     c_bands:  2 eigenvalues not converged
     c_bands:  2 eigenvalues not converged
     c_bands:  1 eigenvalues not converged
     c_bands:  2 eigenvalues not converged
     c_bands:  1 eigenvalues not converged
     c_bands:  5 eigenvalues not converged
     c_bands:  5 eigenvalues not converged
     c_bands:  2 eigenvalues not converged
     c_bands:  2 eigenvalues not converged
     c_bands:  2 eigenvalues not converged
     ethr =  2.24E-06,  avg # of iterations = 24.5

     total cpu time spent up to now is     5521.5 secs

     total energy              =   -1215.55779168 Ry
     estimated scf accuracy    <       0.00761389 Ry

     iteration #  8     ecut=    44.00 Ry     beta= 0.10
     Davidson diagonalization with overlap

---- Real-time Memory Report at c_bands before calling an iterative solver
          1847 MiB given to the printing process from OS
          1276 MiB allocation reported by mallinfo(arena+hblkhd)
        710808 MiB available memory on the node where the printing process lives
------------------
     c_bands:  2 eigenvalues not converged
     c_bands:  1 eigenvalues not converged
     c_bands:  2 eigenvalues not converged
     c_bands:  2 eigenvalues not converged
     c_bands:  2 eigenvalues not converged
     c_bands:  2 eigenvalues not converged
     c_bands:  2 eigenvalues not converged
     c_bands:  2 eigenvalues not converged
     c_bands:  2 eigenvalues not converged
     c_bands:  4 eigenvalues not converged
     c_bands:  1 eigenvalues not converged
     c_bands:  2 eigenvalues not converged
     c_bands:  2 eigenvalues not converged
     c_bands:  1 eigenvalues not converged
     c_bands:  1 eigenvalues not converged
     c_bands:  2 eigenvalues not converged
     c_bands:  2 eigenvalues not converged
     c_bands:  1 eigenvalues not converged
     c_bands:  1 eigenvalues not converged
     c_bands:  3 eigenvalues not converged
     c_bands:  2 eigenvalues not converged
     c_bands:  1 eigenvalues not converged
     c_bands:  1 eigenvalues not converged
     c_bands:  1 eigenvalues not converged
     c_bands:  1 eigenvalues not converged
     c_bands:  1 eigenvalues not converged
     c_bands:  1 eigenvalues not converged
     c_bands:  2 eigenvalues not converged
     c_bands:  2 eigenvalues not converged
     c_bands:  1 eigenvalues not converged
     c_bands:  2 eigenvalues not converged
     c_bands:  3 eigenvalues not converged
     c_bands:  2 eigenvalues not converged
     c_bands:  1 eigenvalues not converged
     c_bands:  2 eigenvalues not converged
     c_bands:  1 eigenvalues not converged
     c_bands:  2 eigenvalues not converged
     c_bands:  2 eigenvalues not converged
     c_bands:  1 eigenvalues not converged
     c_bands:  2 eigenvalues not converged
     c_bands:  1 eigenvalues not converged
     c_bands:  1 eigenvalues not converged
     c_bands:  2 eigenvalues not converged
     c_bands:  2 eigenvalues not converged
     c_bands:  1 eigenvalues not converged
     c_bands:  1 eigenvalues not converged
     c_bands:  1 eigenvalues not converged
     c_bands:  1 eigenvalues not converged
     c_bands:  1 eigenvalues not converged
     c_bands:  1 eigenvalues not converged
     c_bands:  2 eigenvalues not converged
     c_bands:  2 eigenvalues not converged
     c_bands:  2 eigenvalues not converged
     c_bands:  3 eigenvalues not converged
     c_bands:  1 eigenvalues not converged
     c_bands:  1 eigenvalues not converged
     c_bands:  3 eigenvalues not converged
     c_bands:  1 eigenvalues not converged
     c_bands:  1 eigenvalues not converged
     c_bands:  2 eigenvalues not converged
     c_bands:  2 eigenvalues not converged
     c_bands:  2 eigenvalues not converged
     c_bands:  1 eigenvalues not converged
     c_bands:  2 eigenvalues not converged
     c_bands:  1 eigenvalues not converged
     c_bands:  1 eigenvalues not converged
     c_bands:  2 eigenvalues not converged
     c_bands:  1 eigenvalues not converged
     c_bands:  1 eigenvalues not converged
     ethr =  2.24E-06,  avg # of iterations =  9.5

     total cpu time spent up to now is     6224.3 secs

     total energy              =   -1215.55789147 Ry
     estimated scf accuracy    <       0.00312520 Ry

     iteration #  9     ecut=    44.00 Ry     beta= 0.10
     Davidson diagonalization with overlap

---- Real-time Memory Report at c_bands before calling an iterative solver
          1847 MiB given to the printing process from OS
          1276 MiB allocation reported by mallinfo(arena+hblkhd)
        710797 MiB available memory on the node where the printing process lives
------------------
     c_bands:  1 eigenvalues not converged
     c_bands:  2 eigenvalues not converged
     c_bands:  1 eigenvalues not converged
     c_bands:  1 eigenvalues not converged
     c_bands:  2 eigenvalues not converged
     ethr =  1.78E-06,  avg # of iterations =  2.6

     total cpu time spent up to now is     6638.8 secs

     total energy              =   -1215.55772811 Ry
     estimated scf accuracy    <       0.00233658 Ry

     iteration # 10     ecut=    44.00 Ry     beta= 0.10
     Davidson diagonalization with overlap

---- Real-time Memory Report at c_bands before calling an iterative solver
          1847 MiB given to the printing process from OS
          1276 MiB allocation reported by mallinfo(arena+hblkhd)
        710774 MiB available memory on the node where the printing process lives
------------------
     c_bands:  1 eigenvalues not converged
     ethr =  1.33E-06,  avg # of iterations =  1.6

     total cpu time spent up to now is     7041.1 secs

     total energy              =   -1215.55691725 Ry
     estimated scf accuracy    <       0.00179398 Ry

     iteration # 11     ecut=    44.00 Ry     beta= 0.10
     Davidson diagonalization with overlap

---- Real-time Memory Report at c_bands before calling an iterative solver
          1847 MiB given to the printing process from OS
          1276 MiB allocation reported by mallinfo(arena+hblkhd)
        710757 MiB available memory on the node where the printing process lives
------------------
     c_bands:  1 eigenvalues not converged
     ethr =  1.02E-06,  avg # of iterations =  4.2

     total cpu time spent up to now is     7558.5 secs

     total energy              =   -1215.55709588 Ry
     estimated scf accuracy    <       0.00014779 Ry

     iteration # 12     ecut=    44.00 Ry     beta= 0.10
     Davidson diagonalization with overlap

---- Real-time Memory Report at c_bands before calling an iterative solver
          1847 MiB given to the printing process from OS
          1277 MiB allocation reported by mallinfo(arena+hblkhd)
        710730 MiB available memory on the node where the printing process lives
------------------
     ethr =  8.40E-08,  avg # of iterations =  2.5

     total cpu time spent up to now is     8016.4 secs

     total energy              =   -1215.55715675 Ry
     estimated scf accuracy    <       0.00007491 Ry

     iteration # 13     ecut=    44.00 Ry     beta= 0.10
     Davidson diagonalization with overlap

---- Real-time Memory Report at c_bands before calling an iterative solver
          1847 MiB given to the printing process from OS
          1277 MiB allocation reported by mallinfo(arena+hblkhd)
        710711 MiB available memory on the node where the printing process lives
------------------
     ethr =  4.26E-08,  avg # of iterations =  2.4

     total cpu time spent up to now is     8480.0 secs

     total energy              =   -1215.55708572 Ry
     estimated scf accuracy    <       0.00014645 Ry

     iteration # 14     ecut=    44.00 Ry     beta= 0.10
     Davidson diagonalization with overlap

---- Real-time Memory Report at c_bands before calling an iterative solver
          1847 MiB given to the printing process from OS
          1278 MiB allocation reported by mallinfo(arena+hblkhd)
        710682 MiB available memory on the node where the printing process lives
------------------
     c_bands:  1 eigenvalues not converged
     c_bands:  2 eigenvalues not converged
     ethr =  4.26E-08,  avg # of iterations =  4.6

     total cpu time spent up to now is     9048.9 secs

     total energy              =   -1215.55710859 Ry
     estimated scf accuracy    <       0.00000325 Ry

     iteration # 15     ecut=    44.00 Ry     beta= 0.10
     Davidson diagonalization with overlap

---- Real-time Memory Report at c_bands before calling an iterative solver
          1847 MiB given to the printing process from OS
          1279 MiB allocation reported by mallinfo(arena+hblkhd)
        710662 MiB available memory on the node where the printing process lives
------------------
     c_bands:  1 eigenvalues not converged
     c_bands:  1 eigenvalues not converged
     c_bands:  1 eigenvalues not converged
     c_bands:  2 eigenvalues not converged
     c_bands:  2 eigenvalues not converged
     c_bands:  2 eigenvalues not converged
     c_bands:  2 eigenvalues not converged
     c_bands:  1 eigenvalues not converged
     c_bands:  2 eigenvalues not converged
     c_bands:  1 eigenvalues not converged
     c_bands:  1 eigenvalues not converged
     c_bands:  1 eigenvalues not converged
     ethr =  1.85E-09,  avg # of iterations =  8.4

     total cpu time spent up to now is    10071.4 secs

     total energy              =   -1215.55711499 Ry
     estimated scf accuracy    <       0.00000671 Ry

     iteration # 16     ecut=    44.00 Ry     beta= 0.10
     Davidson diagonalization with overlap

---- Real-time Memory Report at c_bands before calling an iterative solver
          1847 MiB given to the printing process from OS
          1280 MiB allocation reported by mallinfo(arena+hblkhd)
        710658 MiB available memory on the node where the printing process lives
------------------
     c_bands:  1 eigenvalues not converged
     c_bands:  2 eigenvalues not converged
     ethr =  1.85E-09,  avg # of iterations =  2.2

     total cpu time spent up to now is    10510.0 secs

     total energy              =   -1215.55711458 Ry
     estimated scf accuracy    <       0.00000255 Ry

     iteration # 17     ecut=    44.00 Ry     beta= 0.10
     Davidson diagonalization with overlap

---- Real-time Memory Report at c_bands before calling an iterative solver
          1847 MiB given to the printing process from OS
          1280 MiB allocation reported by mallinfo(arena+hblkhd)
        710658 MiB available memory on the node where the printing process lives
------------------
     c_bands:  1 eigenvalues not converged
     ethr =  1.45E-09,  avg # of iterations =  2.1

     total cpu time spent up to now is    10935.9 secs

     End of self-consistent calculation

          k = 0.0000 0.0000 0.0000 ( 24407 PWs)   bands (ev):

   -17.4931 -17.4931 -17.3800 -17.3800 -17.3064 -17.3064 -17.2705 -17.2705
   -14.5194 -14.5194 -14.5187 -14.5187 -14.5134 -14.5134 -14.5120 -14.5120
   -14.5099 -14.5099 -14.4998 -14.4998 -14.4985 -14.4985 -14.4957 -14.4957
   -12.0901 -12.0901 -12.0886 -12.0886 -12.0576 -12.0576 -12.0543 -12.0543
   -12.0519 -12.0519 -11.9438 -11.9438 -11.9424 -11.9424 -11.9412 -11.9412
   -11.9149 -11.9149 -11.9138 -11.9138 -11.9096 -11.9096 -11.9080 -11.9080
   -11.2074 -11.2074 -10.9021 -10.9021 -10.9004 -10.9004 -10.8887 -10.8887
   -10.8839 -10.8839 -10.8807 -10.8807 -10.8764 -10.8764 -10.7507 -10.7507
   -10.7465 -10.7465 -10.7422 -10.7422 -10.5152 -10.5152 -10.5139 -10.5139
    -5.4473  -5.4473  -5.3439  -5.3439  -5.2870  -5.2870  -5.2411  -5.2411
    -4.4800  -4.4800  -4.4733  -4.4733  -4.4630  -4.4630  -3.8464  -3.8464
    -3.8254  -3.8254  -3.7500  -3.7500  -3.7320  -3.7320  -3.7047  -3.7047
    -3.6851  -3.6851  -3.6401  -3.6401  -3.6348  -3.6348  -3.1740  -3.1740
    -0.8868  -0.8868  -0.5585  -0.5585  -0.5380  -0.5380  -0.5068  -0.5068
    -0.4603  -0.4603  -0.4307  -0.4307   0.4624   0.4624   0.4683   0.4683
     0.4755   0.4755   0.8691   0.8691   0.8995   0.8995   0.9135   0.9135
     0.9339   0.9339   0.9443   0.9443   0.9485   0.9485   0.9689   0.9689
     0.9821   0.9821   0.9962   0.9962   1.0053   1.0053   1.0110   1.0110
     1.0204   1.0204   1.0831   1.0831   1.1133   1.1133   1.1523   1.1523
     1.1837   1.1837   1.2089   1.2089   1.2256   1.2256   1.2717   1.2717
[...]
    -0.6335  -0.6335  -0.6287  -0.6287  -0.2440  -0.2440  -0.1688  -0.1688
    -0.1399  -0.1399   0.0307   0.0307   0.3522   0.3522   0.4187   0.4187
     0.4388   0.4388   0.5753   0.5753   0.5959   0.5959   0.6245   0.6245
     0.7887   0.7887   0.8552   0.8552   0.8984   0.8984   0.9311   0.9311
     0.9504   0.9504   1.0462   1.0462   1.0590   1.0590   1.0884   1.0884
     1.1226   1.1226   1.1518   1.1518   1.1726   1.1726   1.2052   1.2052
     1.2336   1.2336   1.2621   1.2621   1.2774   1.2774   1.3055   1.3055
     1.3365   1.3365   1.3569   1.3569   1.3807   1.3807   1.4388   1.4388
     1.6027   1.6027   1.6639   1.6639   2.0563   2.0563   2.4404   2.4404
     5.1424   5.1424   5.6417   5.6417   6.4176   6.4176   6.4629   6.4629
     6.6358   6.6358   6.9962   6.9962   7.4409   7.4409   7.8193   7.8193
     7.8680   7.8680   8.0272   8.0272   8.4580   8.4580   8.5064   8.5064
     8.6866   8.6867   8.7363   8.7364   8.7758   8.7758   8.9197   8.9197
     9.0513   9.0513   9.0805   9.0805   9.2083   9.2083   9.2495   9.2496
     9.2910   9.2912   9.3837   9.3850

     occupation numbers 
     1.0000   1.0000   1.0000   1.0000   1.0000   1.0000   1.0000   1.0000
     1.0000   1.0000   1.0000   1.0000   1.0000   1.0000   1.0000   1.0000
     1.0000   1.0000   1.0000   1.0000   1.0000   1.0000   1.0000   1.0000
     1.0000   1.0000   1.0000   1.0000   1.0000   1.0000   1.0000   1.0000
     1.0000   1.0000   1.0000   1.0000   1.0000   1.0000   1.0000   1.0000
     1.0000   1.0000   1.0000   1.0000   1.0000   1.0000   1.0000   1.0000
     1.0000   1.0000   1.0000   1.0000   1.0000   1.0000   1.0000   1.0000
     1.0000   1.0000   1.0000   1.0000   1.0000   1.0000   1.0000   1.0000
     1.0000   1.0000   1.0000   1.0000   1.0000   1.0000   1.0000   1.0000
     1.0000   1.0000   1.0000   1.0000   1.0000   1.0000   1.0000   1.0000
     1.0000   1.0000   1.0000   1.0000   1.0000   1.0000   1.0000   1.0000
     1.0000   1.0000   1.0000   1.0000   1.0000   1.0000   1.0000   1.0000
     1.0000   1.0000   1.0000   1.0000   1.0000   1.0000   1.0000   1.0000
     1.0000   1.0000   1.0000   1.0000   1.0000   1.0000   1.0000   1.0000
     1.0000   1.0000   1.0000   1.0000   1.0000   1.0000   1.0000   1.0000
     1.0000   1.0000   1.0000   1.0000   1.0000   1.0000   1.0000   1.0000
     1.0000   1.0000   1.0000   1.0000   1.0000   1.0000   1.0000   1.0000
     1.0000   1.0000   1.0000   1.0000   1.0000   1.0000   1.0000   1.0000
     1.0000   1.0000   1.0000   1.0000   1.0000   1.0000   1.0000   1.0000
     1.0000   1.0000   1.0000   1.0000   1.0000   1.0000   1.0000   1.0000
     1.0000   1.0000   1.0000   1.0000   1.0000   1.0000   1.0000   1.0000
     1.0000   1.0000   1.0000   1.0000   1.0000   1.0000   1.0000   1.0000
     0.0000   0.0000   0.0000   0.0000   0.0000   0.0000   0.0000   0.0000
     0.0000   0.0000   0.0000   0.0000   0.0000   0.0000   0.0000   0.0000
     0.0000   0.0000   0.0000   0.0000   0.0000   0.0000   0.0000   0.0000
     0.0000   0.0000   0.0000   0.0000   0.0000   0.0000   0.0000   0.0000
     0.0000   0.0000   0.0000   0.0000   0.0000   0.0000   0.0000   0.0000
     0.0000   0.0000   0.0000   0.0000

          k =-0.0004-0.7527-0.2499 ( 24393 PWs)   bands (ev):

   -17.4931 -17.4931 -17.3800 -17.3800 -17.3064 -17.3064 -17.2705 -17.2705
   -14.5187 -14.5187 -14.5170 -14.5170 -14.5152 -14.5152 -14.5082 -14.5082
   -14.5059 -14.5059 -14.5040 -14.5040 -14.4997 -14.4997 -14.4988 -14.4988
   -12.0827 -12.0827 -12.0811 -12.0811 -12.0717 -12.0717 -12.0171 -12.0171
   -12.0154 -12.0154 -11.9996 -11.9996 -11.9690 -11.9690 -11.9521 -11.9521
   -11.9149 -11.9149 -11.9139 -11.9139 -11.9094 -11.9094 -11.9083 -11.9083
   -11.0604 -11.0604 -11.0538 -11.0538 -10.9745 -10.9745 -10.8975 -10.8975
   -10.8851 -10.8851 -10.8803 -10.8803 -10.8194 -10.8194 -10.7852 -10.7852
   -10.7784 -10.7784 -10.5694 -10.5694 -10.5435 -10.5435 -10.5358 -10.5358
    -5.4482  -5.4482  -5.3446  -5.3446  -5.2877  -5.2877  -5.2397  -5.2397
    -4.8758  -4.8758  -4.1103  -4.1103  -3.9391  -3.9391  -3.9269  -3.9269
    -3.8390  -3.8390  -3.8243  -3.8243  -3.7458  -3.7458  -3.7349  -3.7349
    -3.6843  -3.6843  -3.6622  -3.6622  -3.6362  -3.6362  -3.6245  -3.6245
    -0.6599  -0.6599  -0.6509  -0.6509  -0.4755  -0.4755  -0.3513  -0.3513
    -0.3221  -0.3221  -0.2375  -0.2375   0.5011   0.5012   0.5296   0.5296
     0.6047   0.6047   0.6416   0.6416   0.6736   0.6736   0.7201   0.7201
     0.7618   0.7618   0.8950   0.8950   0.9073   0.9073   0.9684   0.9684
     0.9961   0.9961   1.0671   1.0671   1.0829   1.0829   1.1029   1.1029
     1.1393   1.1393   1.1539   1.1539   1.1654   1.1654   1.1882   1.1882
     1.2151   1.2151   1.2323   1.2323   1.2577   1.2577   1.2780   1.2780
     1.3022   1.3022   1.3853   1.3853   1.4259   1.4259   1.4793   1.4793
     1.6706   1.6706   1.7403   1.7403   1.9657   1.9657   2.7344   2.7344
     4.8291   4.8291   5.7805   5.7805   6.1789   6.1789   6.2492   6.2492
     6.3513   6.3513   6.5617   6.5617   7.8084   7.8084   7.9657   7.9657
     8.0080   8.0081   8.4573   8.4573   8.5356   8.5356   8.6319   8.6320
     8.6667   8.6667   8.7304   8.7305   8.7914   8.7915   8.8994   8.8994
     9.0687   9.0687   9.1470   9.1470   9.1700   9.1700   9.2364   9.2365
     9.3504   9.3506   9.4142   9.4153

     occupation numbers 
     1.0000   1.0000   1.0000   1.0000   1.0000   1.0000   1.0000   1.0000
     1.0000   1.0000   1.0000   1.0000   1.0000   1.0000   1.0000   1.0000
     1.0000   1.0000   1.0000   1.0000   1.0000   1.0000   1.0000   1.0000
     1.0000   1.0000   1.0000   1.0000   1.0000   1.0000   1.0000   1.0000
     1.0000   1.0000   1.0000   1.0000   1.0000   1.0000   1.0000   1.0000
     1.0000   1.0000   1.0000   1.0000   1.0000   1.0000   1.0000   1.0000
     1.0000   1.0000   1.0000   1.0000   1.0000   1.0000   1.0000   1.0000
     1.0000   1.0000   1.0000   1.0000   1.0000   1.0000   1.0000   1.0000
     1.0000   1.0000   1.0000   1.0000   1.0000   1.0000   1.0000   1.0000
     1.0000   1.0000   1.0000   1.0000   1.0000   1.0000   1.0000   1.0000
     1.0000   1.0000   1.0000   1.0000   1.0000   1.0000   1.0000   1.0000
     1.0000   1.0000   1.0000   1.0000   1.0000   1.0000   1.0000   1.0000
     1.0000   1.0000   1.0000   1.0000   1.0000   1.0000   1.0000   1.0000
     1.0000   1.0000   1.0000   1.0000   1.0000   1.0000   1.0000   1.0000
     1.0000   1.0000   1.0000   1.0000   1.0000   1.0000   1.0000   1.0000
     1.0000   1.0000   1.0000   1.0000   1.0000   1.0000   1.0000   1.0000
     1.0000   1.0000   1.0000   1.0000   1.0000   1.0000   1.0000   1.0000
     1.0000   1.0000   1.0000   1.0000   1.0000   1.0000   1.0000   1.0000
     1.0000   1.0000   1.0000   1.0000   1.0000   1.0000   1.0000   1.0000
     1.0000   1.0000   1.0000   1.0000   1.0000   1.0000   1.0000   1.0000
     1.0000   1.0000   1.0000   1.0000   1.0000   1.0000   1.0000   1.0000
     1.0000   1.0000   1.0000   1.0000   1.0000   1.0000   1.0000   1.0000
     0.0000   0.0000   0.0000   0.0000   0.0000   0.0000   0.0000   0.0000
     0.0000   0.0000   0.0000   0.0000   0.0000   0.0000   0.0000   0.0000
     0.0000   0.0000   0.0000   0.0000   0.0000   0.0000   0.0000   0.0000
     0.0000   0.0000   0.0000   0.0000   0.0000   0.0000   0.0000   0.0000
     0.0000   0.0000   0.0000   0.0000   0.0000   0.0000   0.0000   0.0000
     0.0000   0.0000   0.0000   0.0000

          k =-0.0009-0.8776-0.1234 ( 24340 PWs)   bands (ev):

   -17.4931 -17.4931 -17.3800 -17.3800 -17.3064 -17.3064 -17.2705 -17.2705
   -14.5200 -14.5200 -14.5182 -14.5182 -14.5165 -14.5165 -14.5076 -14.5076
   -14.5054 -14.5054 -14.5038 -14.5038 -14.4985 -14.4985 -14.4976 -14.4976
   -12.0887 -12.0887 -12.0869 -12.0869 -12.0843 -12.0843 -12.0128 -12.0128
   -12.0108 -12.0108 -12.0066 -12.0066 -11.9495 -11.9495 -11.9452 -11.9452
   -11.9150 -11.9150 -11.9138 -11.9138 -11.9095 -11.9095 -11.9082 -11.9082
   -11.0179 -11.0179 -11.0112 -11.0112 -10.9851 -10.9851 -10.8892 -10.8892
   -10.8847 -10.8847 -10.8758 -10.8758 -10.8592 -10.8592 -10.8496 -10.8496
   -10.8398 -10.8398 -10.5331 -10.5331 -10.5248 -10.5248 -10.5162 -10.5162
    -5.4489  -5.4489  -5.3449  -5.3449  -5.2877  -5.2877  -5.2388  -5.2388
    -4.9738  -4.9738  -3.9666  -3.9666  -3.9245  -3.9245  -3.9061  -3.9061
    -3.8403  -3.8403  -3.8250  -3.8250  -3.7428  -3.7428  -3.7363  -3.7363
    -3.6771  -3.6771  -3.6511  -3.6511  -3.6333  -3.6333  -3.6170  -3.6170
    -0.7054  -0.7054  -0.6941  -0.6941  -0.6343  -0.6343  -0.4717  -0.4717
    -0.4427  -0.4427  -0.4139  -0.4139   0.5470   0.5470   0.5794   0.5794
     0.6211   0.6211   0.7158   0.7158   0.7321   0.7321   0.7443   0.7443
     0.8762   0.8762   0.9602   0.9602   0.9686   0.9686   1.0101   1.0101
     1.0301   1.0301   1.0753   1.0753   1.0845   1.0845   1.1104   1.1104
     1.1314   1.1314   1.1412   1.1412   1.1528   1.1528   1.1785   1.1785
     1.1933   1.1933   1.2072   1.2072   1.2267   1.2267   1.2357   1.2357
     1.2451   1.2451   1.4458   1.4458   1.4733   1.4733   1.5164   1.5164
     1.7667   1.7667   1.8335   1.8335   1.9199   1.9199   3.0215   3.0215
     4.5441   4.5441   5.8101   5.8101   5.9721   5.9721   6.0584   6.0584
     6.2066   6.2066   6.2694   6.2694   8.0351   8.0351   8.0548   8.0548
     8.1008   8.1008   8.5247   8.5247   8.6257   8.6257   8.7077   8.7079
     8.7363   8.7363   8.7964   8.7964   8.8215   8.8218   8.9126   8.9126
     9.1331   9.1331   9.2129   9.2130   9.2463   9.2464   9.3215   9.3216
     9.4256   9.4258   9.4657   9.4658

     occupation numbers 
     1.0000   1.0000   1.0000   1.0000   1.0000   1.0000   1.0000   1.0000
     1.0000   1.0000   1.0000   1.0000   1.0000   1.0000   1.0000   1.0000
     1.0000   1.0000   1.0000   1.0000   1.0000   1.0000   1.0000   1.0000
     1.0000   1.0000   1.0000   1.0000   1.0000   1.0000   1.0000   1.0000
     1.0000   1.0000   1.0000   1.0000   1.0000   1.0000   1.0000   1.0000
     1.0000   1.0000   1.0000   1.0000   1.0000   1.0000   1.0000   1.0000
     1.0000   1.0000   1.0000   1.0000   1.0000   1.0000   1.0000   1.0000
     1.0000   1.0000   1.0000   1.0000   1.0000   1.0000   1.0000   1.0000
     1.0000   1.0000   1.0000   1.0000   1.0000   1.0000   1.0000   1.0000
     1.0000   1.0000   1.0000   1.0000   1.0000   1.0000   1.0000   1.0000
     1.0000   1.0000   1.0000   1.0000   1.0000   1.0000   1.0000   1.0000
     1.0000   1.0000   1.0000   1.0000   1.0000   1.0000   1.0000   1.0000
     1.0000   1.0000   1.0000   1.0000   1.0000   1.0000   1.0000   1.0000
     1.0000   1.0000   1.0000   1.0000   1.0000   1.0000   1.0000   1.0000
     1.0000   1.0000   1.0000   1.0000   1.0000   1.0000   1.0000   1.0000
     1.0000   1.0000   1.0000   1.0000   1.0000   1.0000   1.0000   1.0000
     1.0000   1.0000   1.0000   1.0000   1.0000   1.0000   1.0000   1.0000
     1.0000   1.0000   1.0000   1.0000   1.0000   1.0000   1.0000   1.0000
     1.0000   1.0000   1.0000   1.0000   1.0000   1.0000   1.0000   1.0000
     1.0000   1.0000   1.0000   1.0000   1.0000   1.0000   1.0000   1.0000
     1.0000   1.0000   1.0000   1.0000   1.0000   1.0000   1.0000   1.0000
     1.0000   1.0000   1.0000   1.0000   1.0000   1.0000   1.0000   1.0000
     0.0000   0.0000   0.0000   0.0000   0.0000   0.0000   0.0000   0.0000
     0.0000   0.0000   0.0000   0.0000   0.0000   0.0000   0.0000   0.0000
     0.0000   0.0000   0.0000   0.0000   0.0000   0.0000   0.0000   0.0000
     0.0000   0.0000   0.0000   0.0000   0.0000   0.0000   0.0000   0.0000
     0.0000   0.0000   0.0000   0.0000   0.0000   0.0000   0.0000   0.0000
     0.0000   0.0000   0.0000   0.0000

          k = 0.0020-0.0031-1.0084 ( 24366 PWs)   bands (ev):

   -17.4931 -17.4931 -17.3800 -17.3800 -17.3064 -17.3064 -17.2705 -17.2705
   -14.5205 -14.5205 -14.5186 -14.5186 -14.5170 -14.5170 -14.5074 -14.5074
   -14.5053 -14.5053 -14.5036 -14.5036 -14.4982 -14.4982 -14.4970 -14.4970
   -12.0912 -12.0912 -12.0897 -12.0897 -12.0877 -12.0877 -12.0119 -12.0119
   -12.0100 -12.0100 -12.0076 -12.0076 -11.9428 -11.9428 -11.9423 -11.9423
   -11.9151 -11.9151 -11.9137 -11.9137 -11.9095 -11.9095 -11.9081 -11.9081
   -10.9902 -10.9902 -10.9883 -10.9883 -10.9804 -10.9804 -10.8929 -10.8929
   -10.8894 -10.8894 -10.8825 -10.8825 -10.8745 -10.8745 -10.8728 -10.8728
   -10.8687 -10.8687 -10.5210 -10.5210 -10.5179 -10.5179 -10.5094 -10.5094
    -5.4492  -5.4492  -5.3451  -5.3451  -5.2877  -5.2877  -5.2385  -5.2385
    -5.0074  -5.0074  -3.9242  -3.9242  -3.9150  -3.9150  -3.8934  -3.8934
    -3.8403  -3.8403  -3.8249  -3.8249  -3.7414  -3.7414  -3.7361  -3.7361
    -3.6731  -3.6731  -3.6452  -3.6452  -3.6319  -3.6319  -3.6137  -3.6137
    -0.7383  -0.7383  -0.7236  -0.7236  -0.6838  -0.6838  -0.5117  -0.5117
    -0.4833  -0.4833  -0.4637  -0.4637   0.5610   0.5610   0.5934   0.5934
     0.6292   0.6292   0.7198   0.7198   0.7365   0.7365   0.7425   0.7425
     0.9844   0.9844   1.0011   1.0011   1.0031   1.0031   1.0468   1.0468
     1.0545   1.0545   1.0661   1.0661   1.0793   1.0793   1.0938   1.0938
     1.1099   1.1099   1.1130   1.1130   1.1435   1.1435   1.1790   1.1790
     1.1818   1.1818   1.1950   1.1950   1.2019   1.2019   1.2081   1.2081
     1.2428   1.2428   1.4669   1.4669   1.4948   1.4948   1.5321   1.5321
     1.8129   1.8129   1.8766   1.8766   1.9070   1.9070   3.1557   3.1557
     4.4145   4.4145   5.7874   5.7874   5.8927   5.8927   5.9828   5.9828
     6.1603   6.1603   6.1882   6.1882   8.0667   8.0667   8.1113   8.1113
     8.1308   8.1308   8.4994   8.4994   8.6206   8.6206   8.7381   8.7381
     8.7762   8.7762   8.8327   8.8330   8.8605   8.8606   8.9385   8.9385
     9.1384   9.1384   9.2280   9.2281   9.3294   9.3295   9.4073   9.4074
     9.4677   9.4679   9.5293   9.5296

     occupation numbers 
     1.0000   1.0000   1.0000   1.0000   1.0000   1.0000   1.0000   1.0000
     1.0000   1.0000   1.0000   1.0000   1.0000   1.0000   1.0000   1.0000
     1.0000   1.0000   1.0000   1.0000   1.0000   1.0000   1.0000   1.0000
     1.0000   1.0000   1.0000   1.0000   1.0000   1.0000   1.0000   1.0000
     1.0000   1.0000   1.0000   1.0000   1.0000   1.0000   1.0000   1.0000
     1.0000   1.0000   1.0000   1.0000   1.0000   1.0000   1.0000   1.0000
     1.0000   1.0000   1.0000   1.0000   1.0000   1.0000   1.0000   1.0000
     1.0000   1.0000   1.0000   1.0000   1.0000   1.0000   1.0000   1.0000
     1.0000   1.0000   1.0000   1.0000   1.0000   1.0000   1.0000   1.0000
     1.0000   1.0000   1.0000   1.0000   1.0000   1.0000   1.0000   1.0000
     1.0000   1.0000   1.0000   1.0000   1.0000   1.0000   1.0000   1.0000
     1.0000   1.0000   1.0000   1.0000   1.0000   1.0000   1.0000   1.0000
     1.0000   1.0000   1.0000   1.0000   1.0000   1.0000   1.0000   1.0000
     1.0000   1.0000   1.0000   1.0000   1.0000   1.0000   1.0000   1.0000
     1.0000   1.0000   1.0000   1.0000   1.0000   1.0000   1.0000   1.0000
     1.0000   1.0000   1.0000   1.0000   1.0000   1.0000   1.0000   1.0000
     1.0000   1.0000   1.0000   1.0000   1.0000   1.0000   1.0000   1.0000
     1.0000   1.0000   1.0000   1.0000   1.0000   1.0000   1.0000   1.0000
     1.0000   1.0000   1.0000   1.0000   1.0000   1.0000   1.0000   1.0000
     1.0000   1.0000   1.0000   1.0000   1.0000   1.0000   1.0000   1.0000
     1.0000   1.0000   1.0000   1.0000   1.0000   1.0000   1.0000   1.0000
     1.0000   1.0000   1.0000   1.0000   1.0000   1.0000   1.0000   1.0000
     0.0000   0.0000   0.0000   0.0000   0.0000   0.0000   0.0000   0.0000
     0.0000   0.0000   0.0000   0.0000   0.0000   0.0000   0.0000   0.0000
     0.0000   0.0000   0.0000   0.0000   0.0000   0.0000   0.0000   0.0000
     0.0000   0.0000   0.0000   0.0000   0.0000   0.0000   0.0000   0.0000
     0.0000   0.0000   0.0000   0.0000   0.0000   0.0000   0.0000   0.0000
     0.0000   0.0000   0.0000   0.0000

     highest occupied, lowest unoccupied level (ev):     3.1557    4.4145

!    total energy              =   -1215.55711464 Ry
     estimated scf accuracy    <       0.00000070 Ry

     The total energy is the sum of the following terms:
     one-electron contribution =    -409.58521966 Ry
     hartree contribution      =     281.31568310 Ry
     xc contribution           =    -390.16226198 Ry
     ewald contribution        =    -697.12531609 Ry

     convergence has been achieved in  17 iterations

     Writing all to output data dir ./out_soc/CsPbCl3_soc.save/ :
     XML data file, charge density, pseudopotentials, collected wavefunctions

     init_run     :    113.43s CPU    120.29s WALL (       1 calls)
     electrons    :  10548.22s CPU  10813.70s WALL (       1 calls)

     Called by init_run:
     wfcinit      :    110.41s CPU    114.49s WALL (       1 calls)
     wfcinit:atom :      0.68s CPU      0.68s WALL (     260 calls)
     wfcinit:wfcr :    107.48s CPU    111.51s WALL (     260 calls)
     potinit      :      0.18s CPU      0.49s WALL (       1 calls)
     hinit0       :      0.46s CPU      2.14s WALL (       1 calls)

     Called by electrons:
     c_bands      :   9100.98s CPU   9317.96s WALL (      18 calls)
     sum_band     :   1387.00s CPU   1423.90s WALL (      18 calls)
     v_of_rho     :      1.38s CPU      1.84s WALL (      18 calls)
     v_h          :      0.12s CPU      0.21s WALL (      18 calls)
     v_xc         :      1.26s CPU      1.62s WALL (      18 calls)
     newd         :     57.10s CPU     67.26s WALL (      18 calls)
     mix_rho      :      0.69s CPU      1.74s WALL (      18 calls)

     Called by c_bands:
     init_us_2    :     41.88s CPU     42.52s WALL (    9620 calls)
     cegterg      :   8802.22s CPU   8987.59s WALL (    4783 calls)

     Called by sum_band:
     sum_band:wei :      0.01s CPU      0.01s WALL (      18 calls)
     sum_band:loo :   1368.12s CPU   1391.69s WALL (      18 calls)
     sum_band:buf :     11.87s CPU     12.04s WALL (    4680 calls)
     sum_band:ini :     19.44s CPU     19.64s WALL (    4680 calls)
     sum_band:cal :    166.95s CPU    175.84s WALL (    4680 calls)
     sum_band:bec :    279.10s CPU    281.01s WALL (    4680 calls)
     addusdens    :     18.51s CPU     31.81s WALL (      18 calls)
                                        0.00s GPU  (      18 calls)
     addusd:skk   :      0.03s CPU      0.03s WALL (      54 calls)
                                        0.00s GPU  (      54 calls)

     Called by *egterg:
     cdiaghg      :   2792.41s CPU   2833.82s WALL (   31102 calls)
     cegterg:over :    517.15s CPU    537.13s WALL (   26579 calls)
     cegterg:upda :    347.93s CPU    356.81s WALL (   26579 calls)
     cegterg:last :    599.39s CPU    623.93s WALL (   10770 calls)
     cdiaghg:chol :     51.56s CPU     53.02s WALL (   31102 calls)
     cdiaghg:inve :     21.24s CPU     22.08s WALL (   31102 calls)
     cdiaghg:para :    240.49s CPU    264.28s WALL (   62204 calls)
     h_psi        :   3590.96s CPU   3676.69s WALL (   31622 calls)
     s_psi        :    826.24s CPU    832.30s WALL (   31622 calls)
     g_psi        :     14.39s CPU     14.67s WALL (   26579 calls)

     Called by h_psi:
     h_psi:calbec :    478.49s CPU    504.24s WALL (   31622 calls)
     vloc_psi     :   2363.29s CPU   2416.31s WALL (   31622 calls)
     add_vuspsi   :    720.65s CPU    727.28s WALL (   31622 calls)

     General routines
     calbec       :    645.20s CPU    679.97s WALL (   36302 calls)
     fft          :      1.22s CPU      2.76s WALL (     440 calls)
     ffts         :      0.23s CPU      0.27s WALL (     648 calls)
     fftw         :   2002.28s CPU   2043.47s WALL (13261084 calls)
     interpolate  :      0.14s CPU      0.22s WALL (      72 calls)

     Parallel routines

     PWSCF        :      2h58m CPU      3h 4m WALL


   This run was terminated on:  18:59:42  15Apr2025            

=------------------------------------------------------------------------------=
   JOB DONE.
=------------------------------------------------------------------------------=
